 Entering Gaussian System, Link 0=g09
 Input=reag_NHC15_et_new2.gjf
 Output=reag_NHC15_et_new2.log
 Initial command:
 /usr/local/gqt/g09/l1.exe "/usr/local/gqt/lixogaussian/Gau-232530.inp" -scrdir="/usr/local/gqt/lixogaussian/"
 Entering Link 1 = /usr/local/gqt/g09/l1.exe PID=    232532.
  
 Copyright (c) 1988,1990,1992,1993,1995,1998,2003,2009,2013,
            Gaussian, Inc.  All Rights Reserved.
  
 This is part of the Gaussian(R) 09 program.  It is based on
 the Gaussian(R) 03 system (copyright 2003, Gaussian, Inc.),
 the Gaussian(R) 98 system (copyright 1998, Gaussian, Inc.),
 the Gaussian(R) 94 system (copyright 1995, Gaussian, Inc.),
 the Gaussian 92(TM) system (copyright 1992, Gaussian, Inc.),
 the Gaussian 90(TM) system (copyright 1990, Gaussian, Inc.),
 the Gaussian 88(TM) system (copyright 1988, Gaussian, Inc.),
 the Gaussian 86(TM) system (copyright 1986, Carnegie Mellon
 University), and the Gaussian 82(TM) system (copyright 1983,
 Carnegie Mellon University). Gaussian is a federally registered
 trademark of Gaussian, Inc.
  
 This software contains proprietary and confidential information,
 including trade secrets, belonging to Gaussian, Inc.
  
 This software is provided under written license and may be
 used, copied, transmitted, or stored only in accord with that
 written license.
  
 The following legend is applicable only to US Government
 contracts under FAR:
  
                    RESTRICTED RIGHTS LEGEND
  
 Use, reproduction and disclosure by the US Government is
 subject to restrictions as set forth in subparagraphs (a)
 and (c) of the Commercial Computer Software - Restricted
 Rights clause in FAR 52.227-19.
  
 Gaussian, Inc.
 340 Quinnipiac St., Bldg. 40, Wallingford CT 06492
  
  
 ---------------------------------------------------------------
 Warning -- This program may not be used in any manner that
 competes with the business of Gaussian, Inc. or will provide
 assistance to any competitor of Gaussian, Inc.  The licensee
 of this program is prohibited from giving any competitor of
 Gaussian, Inc. access to this program.  By using this program,
 the user acknowledges that Gaussian, Inc. is engaged in the
 business of creating and licensing software in the field of
 computational chemistry and represents and warrants to the
 licensee that it is not a competitor of Gaussian, Inc. and that
 it will not use this program in any manner prohibited above.
 ---------------------------------------------------------------
  

 Cite this work as:
 Gaussian 09, Revision D.01,
 M. J. Frisch, G. W. Trucks, H. B. Schlegel, G. E. Scuseria, 
 M. A. Robb, J. R. Cheeseman, G. Scalmani, V. Barone, B. Mennucci, 
 G. A. Petersson, H. Nakatsuji, M. Caricato, X. Li, H. P. Hratchian, 
 A. F. Izmaylov, J. Bloino, G. Zheng, J. L. Sonnenberg, M. Hada, 
 M. Ehara, K. Toyota, R. Fukuda, J. Hasegawa, M. Ishida, T. Nakajima, 
 Y. Honda, O. Kitao, H. Nakai, T. Vreven, J. A. Montgomery, Jr., 
 J. E. Peralta, F. Ogliaro, M. Bearpark, J. J. Heyd, E. Brothers, 
 K. N. Kudin, V. N. Staroverov, T. Keith, R. Kobayashi, J. Normand, 
 K. Raghavachari, A. Rendell, J. C. Burant, S. S. Iyengar, J. Tomasi, 
 M. Cossi, N. Rega, J. M. Millam, M. Klene, J. E. Knox, J. B. Cross, 
 V. Bakken, C. Adamo, J. Jaramillo, R. Gomperts, R. E. Stratmann, 
 O. Yazyev, A. J. Austin, R. Cammi, C. Pomelli, J. W. Ochterski, 
 R. L. Martin, K. Morokuma, V. G. Zakrzewski, G. A. Voth, 
 P. Salvador, J. J. Dannenberg, S. Dapprich, A. D. Daniels, 
 O. Farkas, J. B. Foresman, J. V. Ortiz, J. Cioslowski, 
 and D. J. Fox, Gaussian, Inc., Wallingford CT, 2013.
 
 ******************************************
 Gaussian 09:  ES64L-G09RevD.01 24-Apr-2013
                17-Feb-2022 
 ******************************************
 %nprocshared=20
 Will use up to   20 processors via shared memory.
 %mem=50GB
 %chk=reag_NHC15_et_new2.chk
 ------------------------------------------------------------
 #p opt freq n12sx/6-311+g(d,p) scrf=(iefpcm,solvent=ethanol)
 ------------------------------------------------------------
 1/14=-1,18=20,19=15,26=3,38=1/1,3;
 2/9=110,12=2,17=6,18=5,40=1/2;
 3/5=4,6=6,7=111,11=2,16=1,25=1,30=1,70=2201,71=1,72=4,74=-69/1,2,3;
 4//1;
 5/5=2,38=5,53=4/2;
 6/7=2,8=2,9=2,10=2,28=1/1;
 7//1,2,3,16;
 1/14=-1,18=20,19=15,26=3/3(2);
 2/9=110/2;
 99//99;
 2/9=110/2;
 3/5=4,6=6,7=111,11=2,16=1,25=1,30=1,70=2205,71=1,72=4,74=-69/1,2,3;
 4/5=5,16=3,69=1/1;
 5/5=2,38=5,53=4/2;
 7//1,2,3,16;
 1/14=-1,18=20,19=15,26=3/3(-5);
 2/9=110/2;
 6/7=2,8=2,9=2,10=2,19=2,28=1/1;
 99/9=1/99;
 Leave Link    1 at Thu Feb 17 07:38:23 2022, MaxMem=  6710886400 cpu:         0.6
 (Enter /usr/local/gqt/g09/l101.exe)
 -----
 TITLE
 -----
 Symbolic Z-matrix:
 Charge =  0 Multiplicity = 1
 1                    -0.14528  -0.63495   0.64612 
 8                     0.63141  -1.20508   0.87608 
 6                     0.88092  -1.10114   2.25605 
 1                     1.0528   -0.05696   2.53777 
 1                     0.01452  -1.446     2.83266 
 6                     5.50155  -2.83392  -0.51192 
 6                     3.59149  -0.70457  -0.89682 
 6                     4.26593  -3.02801  -1.37467 
 1                     5.70241  -3.68657   0.13131 
 1                     6.38361  -2.71612  -1.14574 
 6                     3.88261  -1.69677  -1.99166 
 1                     3.48623   0.30774  -1.27406 
 1                     2.68198  -0.96402  -0.35617 
 1                     4.4654   -3.77639  -2.13836 
 1                     3.43999  -3.40192  -0.7688 
 1                     2.99233  -1.78669  -2.61154 
 1                     4.68841  -1.33312  -2.63126 
 8                     4.64849  -0.61954   0.0884 
 8                     6.25431  -1.47771   1.29121 
 6                     5.48801  -1.61167   0.36602 
 6                     2.08994  -1.92783   2.62362 
 1                     2.28734  -1.86376   3.69258 
 1                     1.93293  -2.97467   2.36827 
 1                     2.97243  -1.57383   2.09375 
 7                    -2.26417   2.76632   0.04892 
 6                    -3.33974   1.99006   0.28298 
 7                    -2.8602    0.7008    0.43153 
 6                    -1.51434   0.62568   0.31773 
 7                    -1.16818   1.9184    0.08213 
 6                    -4.80745   2.17767   0.31301 
 8                    -5.3928    1.16677  -0.48806 
 6                    -5.12784  -0.15435  -0.06828 
 6                    -3.8199   -0.34953   0.75911 
 6                    -4.99082  -1.08186  -1.27491 
 6                    -4.08219  -2.15788  -0.76753 
 6                    -3.4064   -1.7392    0.37511 
 6                    -3.87542  -3.43145  -1.27302 
 6                    -2.98932  -4.27881  -0.62087 
 6                    -2.32481  -3.862     0.52713 
 6                    -2.53278  -2.58691   1.03479 
 6                     0.1737    2.36469  -0.12136 
 6                     0.8846    2.88951   0.95716 
 6                     2.1798    3.34027   0.72924 
 6                     2.76587   3.28128  -0.52966 
 6                     2.02146   2.75678  -1.58029 
 6                     0.72453   2.29034  -1.40008 
 6                    -0.05678   1.72992  -2.54773 
 6                     0.27017   2.9817    2.31983 
 6                     4.1741    3.74663  -0.74372 
 1                    -5.19866   2.12626   1.33392 
 1                    -5.09332   3.13473  -0.10919 
 1                    -5.94777  -0.4981    0.56676 
 1                    -4.03143  -0.27288   1.82444 
 1                    -5.95142  -1.45393  -1.62261 
 1                    -4.53032  -0.53602  -2.09972 
 1                    -4.40183  -3.76585  -2.15527 
 1                    -2.82234  -5.27537  -1.00266 
 1                    -1.64712  -4.53604   1.02933 
 1                    -2.02113  -2.26574   1.92932 
 1                     2.74242   3.74852   1.55758 
 1                     2.45793   2.71259  -2.56891 
 1                     0.5136    1.79492  -3.46978 
 1                    -0.3125    0.68585  -2.37408 
 1                    -0.99498   2.26511  -2.68816 
 1                    -0.52475   3.72707   2.34497 
 1                    -0.17425   2.0345    2.6193 
 1                     1.0145    3.26222   3.05938 
 1                     4.43606   4.54814  -0.05701 
 1                     4.87877   2.93137  -0.57514 
 1                     4.32446   4.1017   -1.76054 
 
 Add virtual bond connecting atoms C28        and H1         Dist= 3.57D+00.
 Add virtual bond connecting atoms H13        and O2         Dist= 4.54D+00.
 Add virtual bond connecting atoms H13        and H24        Dist= 4.80D+00.
 NAtoms=     70 NQM=       70 NQMF=       0 NMMI=      0 NMMIF=      0
                NMic=       0 NMicF=      0.
                    Isotopes and Nuclear Properties:
 (Nuclear quadrupole moments (NQMom) in fm**2, nuclear magnetic moments (NMagM)
  in nuclear magnetons)

  Atom         1           2           3           4           5           6           7           8           9          10
 IAtWgt=           1          16          12           1           1          12          12          12           1           1
 AtmWgt=   1.0078250  15.9949146  12.0000000   1.0078250   1.0078250  12.0000000  12.0000000  12.0000000   1.0078250   1.0078250
 NucSpn=           1           0           0           1           1           0           0           0           1           1
 AtZEff=   0.0000000   0.0000000   0.0000000   0.0000000   0.0000000   0.0000000   0.0000000   0.0000000   0.0000000   0.0000000
 NQMom=    0.0000000   0.0000000   0.0000000   0.0000000   0.0000000   0.0000000   0.0000000   0.0000000   0.0000000   0.0000000
 NMagM=    2.7928460   0.0000000   0.0000000   2.7928460   2.7928460   0.0000000   0.0000000   0.0000000   2.7928460   2.7928460
 AtZNuc=   1.0000000   8.0000000   6.0000000   1.0000000   1.0000000   6.0000000   6.0000000   6.0000000   1.0000000   1.0000000

  Atom        11          12          13          14          15          16          17          18          19          20
 IAtWgt=          12           1           1           1           1           1           1          16          16          12
 AtmWgt=  12.0000000   1.0078250   1.0078250   1.0078250   1.0078250   1.0078250   1.0078250  15.9949146  15.9949146  12.0000000
 NucSpn=           0           1           1           1           1           1           1           0           0           0
 AtZEff=   0.0000000   0.0000000   0.0000000   0.0000000   0.0000000   0.0000000   0.0000000   0.0000000   0.0000000   0.0000000
 NQMom=    0.0000000   0.0000000   0.0000000   0.0000000   0.0000000   0.0000000   0.0000000   0.0000000   0.0000000   0.0000000
 NMagM=    0.0000000   2.7928460   2.7928460   2.7928460   2.7928460   2.7928460   2.7928460   0.0000000   0.0000000   0.0000000
 AtZNuc=   6.0000000   1.0000000   1.0000000   1.0000000   1.0000000   1.0000000   1.0000000   8.0000000   8.0000000   6.0000000

  Atom        21          22          23          24          25          26          27          28          29          30
 IAtWgt=          12           1           1           1          14          12          14          12          14          12
 AtmWgt=  12.0000000   1.0078250   1.0078250   1.0078250  14.0030740  12.0000000  14.0030740  12.0000000  14.0030740  12.0000000
 NucSpn=           0           1           1           1           2           0           2           0           2           0
 AtZEff=   0.0000000   0.0000000   0.0000000   0.0000000   0.0000000   0.0000000   0.0000000   0.0000000   0.0000000   0.0000000
 NQMom=    0.0000000   0.0000000   0.0000000   0.0000000   2.0440000   0.0000000   2.0440000   0.0000000   2.0440000   0.0000000
 NMagM=    0.0000000   2.7928460   2.7928460   2.7928460   0.4037610   0.0000000   0.4037610   0.0000000   0.4037610   0.0000000
 AtZNuc=   6.0000000   1.0000000   1.0000000   1.0000000   7.0000000   6.0000000   7.0000000   6.0000000   7.0000000   6.0000000

  Atom        31          32          33          34          35          36          37          38          39          40
 IAtWgt=          16          12          12          12          12          12          12          12          12          12
 AtmWgt=  15.9949146  12.0000000  12.0000000  12.0000000  12.0000000  12.0000000  12.0000000  12.0000000  12.0000000  12.0000000
 NucSpn=           0           0           0           0           0           0           0           0           0           0
 AtZEff=   0.0000000   0.0000000   0.0000000   0.0000000   0.0000000   0.0000000   0.0000000   0.0000000   0.0000000   0.0000000
 NQMom=    0.0000000   0.0000000   0.0000000   0.0000000   0.0000000   0.0000000   0.0000000   0.0000000   0.0000000   0.0000000
 NMagM=    0.0000000   0.0000000   0.0000000   0.0000000   0.0000000   0.0000000   0.0000000   0.0000000   0.0000000   0.0000000
 AtZNuc=   8.0000000   6.0000000   6.0000000   6.0000000   6.0000000   6.0000000   6.0000000   6.0000000   6.0000000   6.0000000

  Atom        41          42          43          44          45          46          47          48          49          50
 IAtWgt=          12          12          12          12          12          12          12          12          12           1
 AtmWgt=  12.0000000  12.0000000  12.0000000  12.0000000  12.0000000  12.0000000  12.0000000  12.0000000  12.0000000   1.0078250
 NucSpn=           0           0           0           0           0           0           0           0           0           1
 AtZEff=   0.0000000   0.0000000   0.0000000   0.0000000   0.0000000   0.0000000   0.0000000   0.0000000   0.0000000   0.0000000
 NQMom=    0.0000000   0.0000000   0.0000000   0.0000000   0.0000000   0.0000000   0.0000000   0.0000000   0.0000000   0.0000000
 NMagM=    0.0000000   0.0000000   0.0000000   0.0000000   0.0000000   0.0000000   0.0000000   0.0000000   0.0000000   2.7928460
 AtZNuc=   6.0000000   6.0000000   6.0000000   6.0000000   6.0000000   6.0000000   6.0000000   6.0000000   6.0000000   1.0000000

  Atom        51          52          53          54          55          56          57          58          59          60
 IAtWgt=           1           1           1           1           1           1           1           1           1           1
 AtmWgt=   1.0078250   1.0078250   1.0078250   1.0078250   1.0078250   1.0078250   1.0078250   1.0078250   1.0078250   1.0078250
 NucSpn=           1           1           1           1           1           1           1           1           1           1
 AtZEff=   0.0000000   0.0000000   0.0000000   0.0000000   0.0000000   0.0000000   0.0000000   0.0000000   0.0000000   0.0000000
 NQMom=    0.0000000   0.0000000   0.0000000   0.0000000   0.0000000   0.0000000   0.0000000   0.0000000   0.0000000   0.0000000
 NMagM=    2.7928460   2.7928460   2.7928460   2.7928460   2.7928460   2.7928460   2.7928460   2.7928460   2.7928460   2.7928460
 AtZNuc=   1.0000000   1.0000000   1.0000000   1.0000000   1.0000000   1.0000000   1.0000000   1.0000000   1.0000000   1.0000000

  Atom        61          62          63          64          65          66          67          68          69          70
 IAtWgt=           1           1           1           1           1           1           1           1           1           1
 AtmWgt=   1.0078250   1.0078250   1.0078250   1.0078250   1.0078250   1.0078250   1.0078250   1.0078250   1.0078250   1.0078250
 NucSpn=           1           1           1           1           1           1           1           1           1           1
 AtZEff=   0.0000000   0.0000000   0.0000000   0.0000000   0.0000000   0.0000000   0.0000000   0.0000000   0.0000000   0.0000000
 NQMom=    0.0000000   0.0000000   0.0000000   0.0000000   0.0000000   0.0000000   0.0000000   0.0000000   0.0000000   0.0000000
 NMagM=    2.7928460   2.7928460   2.7928460   2.7928460   2.7928460   2.7928460   2.7928460   2.7928460   2.7928460   2.7928460
 AtZNuc=   1.0000000   1.0000000   1.0000000   1.0000000   1.0000000   1.0000000   1.0000000   1.0000000   1.0000000   1.0000000
 Leave Link  101 at Thu Feb 17 07:38:23 2022, MaxMem=  6710886400 cpu:         6.9
 (Enter /usr/local/gqt/g09/l103.exe)

 GradGradGradGradGradGradGradGradGradGradGradGradGradGradGradGradGradGrad
 Berny optimization.
 Initialization pass.
                           ----------------------------
                           !    Initial Parameters    !
                           ! (Angstroms and Degrees)  !
 --------------------------                            --------------------------
 ! Name  Definition              Value          Derivative Info.                !
 --------------------------------------------------------------------------------
 ! R1    R(1,2)                  0.9905         estimate D2E/DX2                !
 ! R2    R(1,28)                 1.8898         estimate D2E/DX2                !
 ! R3    R(2,3)                  1.4062         estimate D2E/DX2                !
 ! R4    R(2,13)                 2.4044         estimate D2E/DX2                !
 ! R5    R(3,4)                  1.0951         estimate D2E/DX2                !
 ! R6    R(3,5)                  1.0964         estimate D2E/DX2                !
 ! R7    R(3,21)                 1.5101         estimate D2E/DX2                !
 ! R8    R(6,8)                  1.5195         estimate D2E/DX2                !
 ! R9    R(6,9)                  1.0868         estimate D2E/DX2                !
 ! R10   R(6,10)                 1.0925         estimate D2E/DX2                !
 ! R11   R(6,20)                 1.5049         estimate D2E/DX2                !
 ! R12   R(7,11)                 1.5059         estimate D2E/DX2                !
 ! R13   R(7,12)                 1.0854         estimate D2E/DX2                !
 ! R14   R(7,13)                 1.0894         estimate D2E/DX2                !
 ! R15   R(7,18)                 1.4475         estimate D2E/DX2                !
 ! R16   R(8,11)                 1.5165         estimate D2E/DX2                !
 ! R17   R(8,14)                 1.0877         estimate D2E/DX2                !
 ! R18   R(8,15)                 1.0904         estimate D2E/DX2                !
 ! R19   R(11,16)                1.0885         estimate D2E/DX2                !
 ! R20   R(11,17)                1.0912         estimate D2E/DX2                !
 ! R21   R(13,24)                2.5413         estimate D2E/DX2                !
 ! R22   R(18,20)                1.329          estimate D2E/DX2                !
 ! R23   R(19,20)                1.2088         estimate D2E/DX2                !
 ! R24   R(21,22)                1.0889         estimate D2E/DX2                !
 ! R25   R(21,23)                1.0889         estimate D2E/DX2                !
 ! R26   R(21,24)                1.0885         estimate D2E/DX2                !
 ! R27   R(25,26)                1.3469         estimate D2E/DX2                !
 ! R28   R(25,29)                1.3861         estimate D2E/DX2                !
 ! R29   R(26,27)                1.3836         estimate D2E/DX2                !
 ! R30   R(26,30)                1.48           estimate D2E/DX2                !
 ! R31   R(27,28)                1.3527         estimate D2E/DX2                !
 ! R32   R(27,33)                1.46           estimate D2E/DX2                !
 ! R33   R(28,29)                1.3588         estimate D2E/DX2                !
 ! R34   R(29,41)                1.4287         estimate D2E/DX2                !
 ! R35   R(30,31)                1.4164         estimate D2E/DX2                !
 ! R36   R(30,50)                1.0945         estimate D2E/DX2                !
 ! R37   R(30,51)                1.0844         estimate D2E/DX2                !
 ! R38   R(31,32)                1.4113         estimate D2E/DX2                !
 ! R39   R(32,33)                1.5599         estimate D2E/DX2                !
 ! R40   R(32,34)                1.5281         estimate D2E/DX2                !
 ! R41   R(32,52)                1.0926         estimate D2E/DX2                !
 ! R42   R(33,36)                1.4999         estimate D2E/DX2                !
 ! R43   R(33,53)                1.0888         estimate D2E/DX2                !
 ! R44   R(34,35)                1.497          estimate D2E/DX2                !
 ! R45   R(34,54)                1.0872         estimate D2E/DX2                !
 ! R46   R(34,55)                1.091          estimate D2E/DX2                !
 ! R47   R(35,36)                1.392          estimate D2E/DX2                !
 ! R48   R(35,37)                1.3857         estimate D2E/DX2                !
 ! R49   R(36,40)                1.3846         estimate D2E/DX2                !
 ! R50   R(37,38)                1.3887         estimate D2E/DX2                !
 ! R51   R(37,56)                1.0804         estimate D2E/DX2                !
 ! R52   R(38,39)                1.3904         estimate D2E/DX2                !
 ! R53   R(38,57)                1.0802         estimate D2E/DX2                !
 ! R54   R(39,40)                1.3881         estimate D2E/DX2                !
 ! R55   R(39,58)                1.0797         estimate D2E/DX2                !
 ! R56   R(40,59)                1.0794         estimate D2E/DX2                !
 ! R57   R(41,42)                1.3943         estimate D2E/DX2                !
 ! R58   R(41,46)                1.3943         estimate D2E/DX2                !
 ! R59   R(42,43)                1.3902         estimate D2E/DX2                !
 ! R60   R(42,48)                1.4976         estimate D2E/DX2                !
 ! R61   R(43,44)                1.3899         estimate D2E/DX2                !
 ! R62   R(43,60)                1.0814         estimate D2E/DX2                !
 ! R63   R(44,45)                1.3904         estimate D2E/DX2                !
 ! R64   R(44,49)                1.4985         estimate D2E/DX2                !
 ! R65   R(45,46)                1.39           estimate D2E/DX2                !
 ! R66   R(45,61)                1.0816         estimate D2E/DX2                !
 ! R67   R(46,47)                1.4972         estimate D2E/DX2                !
 ! R68   R(47,62)                1.0862         estimate D2E/DX2                !
 ! R69   R(47,63)                1.0889         estimate D2E/DX2                !
 ! R70   R(47,64)                1.0892         estimate D2E/DX2                !
 ! R71   R(48,65)                1.09           estimate D2E/DX2                !
 ! R72   R(48,66)                1.0883         estimate D2E/DX2                !
 ! R73   R(48,67)                1.0861         estimate D2E/DX2                !
 ! R74   R(49,68)                1.0875         estimate D2E/DX2                !
 ! R75   R(49,69)                1.0907         estimate D2E/DX2                !
 ! R76   R(49,70)                1.0875         estimate D2E/DX2                !
 ! A1    A(1,2,3)              108.9296         estimate D2E/DX2                !
 ! A2    A(1,2,13)             119.4739         estimate D2E/DX2                !
 ! A3    A(3,2,13)             110.1327         estimate D2E/DX2                !
 ! A4    A(2,3,4)              110.5359         estimate D2E/DX2                !
 ! A5    A(2,3,5)              110.6494         estimate D2E/DX2                !
 ! A6    A(2,3,21)             109.9058         estimate D2E/DX2                !
 ! A7    A(4,3,5)              106.7773         estimate D2E/DX2                !
 ! A8    A(4,3,21)             109.4948         estimate D2E/DX2                !
 ! A9    A(5,3,21)             109.4193         estimate D2E/DX2                !
 ! A10   A(8,6,9)              112.7145         estimate D2E/DX2                !
 ! A11   A(8,6,10)             109.9315         estimate D2E/DX2                !
 ! A12   A(8,6,20)             115.3192         estimate D2E/DX2                !
 ! A13   A(9,6,10)             106.1854         estimate D2E/DX2                !
 ! A14   A(9,6,20)             107.0726         estimate D2E/DX2                !
 ! A15   A(10,6,20)            104.9588         estimate D2E/DX2                !
 ! A16   A(11,7,12)            112.3671         estimate D2E/DX2                !
 ! A17   A(11,7,13)            111.4254         estimate D2E/DX2                !
 ! A18   A(11,7,18)            113.1024         estimate D2E/DX2                !
 ! A19   A(12,7,13)            108.2783         estimate D2E/DX2                !
 ! A20   A(12,7,18)            104.6302         estimate D2E/DX2                !
 ! A21   A(13,7,18)            106.6099         estimate D2E/DX2                !
 ! A22   A(6,8,11)             108.9308         estimate D2E/DX2                !
 ! A23   A(6,8,14)             109.7199         estimate D2E/DX2                !
 ! A24   A(6,8,15)             110.1365         estimate D2E/DX2                !
 ! A25   A(11,8,14)            111.3882         estimate D2E/DX2                !
 ! A26   A(11,8,15)            109.6091         estimate D2E/DX2                !
 ! A27   A(14,8,15)            107.043          estimate D2E/DX2                !
 ! A28   A(7,11,8)             109.3563         estimate D2E/DX2                !
 ! A29   A(7,11,16)            108.0783         estimate D2E/DX2                !
 ! A30   A(7,11,17)            110.4469         estimate D2E/DX2                !
 ! A31   A(8,11,16)            111.4626         estimate D2E/DX2                !
 ! A32   A(8,11,17)            110.1433         estimate D2E/DX2                !
 ! A33   A(16,11,17)           107.3197         estimate D2E/DX2                !
 ! A34   A(2,13,24)             65.1251         estimate D2E/DX2                !
 ! A35   A(7,13,24)            116.114          estimate D2E/DX2                !
 ! A36   A(7,18,20)            124.0301         estimate D2E/DX2                !
 ! A37   A(6,20,18)            119.3488         estimate D2E/DX2                !
 ! A38   A(6,20,19)            122.06           estimate D2E/DX2                !
 ! A39   A(18,20,19)           118.5302         estimate D2E/DX2                !
 ! A40   A(3,21,22)            110.6025         estimate D2E/DX2                !
 ! A41   A(3,21,23)            110.7188         estimate D2E/DX2                !
 ! A42   A(3,21,24)            110.645          estimate D2E/DX2                !
 ! A43   A(22,21,23)           108.2343         estimate D2E/DX2                !
 ! A44   A(22,21,24)           108.165          estimate D2E/DX2                !
 ! A45   A(23,21,24)           108.3849         estimate D2E/DX2                !
 ! A46   A(13,24,21)           117.0424         estimate D2E/DX2                !
 ! A47   A(26,25,29)           105.9438         estimate D2E/DX2                !
 ! A48   A(25,26,27)           106.1959         estimate D2E/DX2                !
 ! A49   A(25,26,30)           136.2526         estimate D2E/DX2                !
 ! A50   A(27,26,30)           117.3668         estimate D2E/DX2                !
 ! A51   A(26,27,28)           112.8023         estimate D2E/DX2                !
 ! A52   A(26,27,33)           117.8163         estimate D2E/DX2                !
 ! A53   A(28,27,33)           129.2657         estimate D2E/DX2                !
 ! A54   A(1,28,27)            138.0032         estimate D2E/DX2                !
 ! A55   A(1,28,29)            118.6976         estimate D2E/DX2                !
 ! A56   A(27,28,29)           102.4276         estimate D2E/DX2                !
 ! A57   A(25,29,28)           112.6241         estimate D2E/DX2                !
 ! A58   A(25,29,41)           123.2401         estimate D2E/DX2                !
 ! A59   A(28,29,41)           124.134          estimate D2E/DX2                !
 ! A60   A(26,30,31)           107.9323         estimate D2E/DX2                !
 ! A61   A(26,30,50)           111.5576         estimate D2E/DX2                !
 ! A62   A(26,30,51)           111.4334         estimate D2E/DX2                !
 ! A63   A(31,30,50)           110.2608         estimate D2E/DX2                !
 ! A64   A(31,30,51)           107.503          estimate D2E/DX2                !
 ! A65   A(50,30,51)           108.0823         estimate D2E/DX2                !
 ! A66   A(30,31,32)           114.9792         estimate D2E/DX2                !
 ! A67   A(31,32,33)           115.614          estimate D2E/DX2                !
 ! A68   A(31,32,34)           110.4971         estimate D2E/DX2                !
 ! A69   A(31,32,52)           109.0574         estimate D2E/DX2                !
 ! A70   A(33,32,34)           105.527          estimate D2E/DX2                !
 ! A71   A(33,32,52)           106.3538         estimate D2E/DX2                !
 ! A72   A(34,32,52)           109.59           estimate D2E/DX2                !
 ! A73   A(27,33,32)           110.0066         estimate D2E/DX2                !
 ! A74   A(27,33,36)           115.3334         estimate D2E/DX2                !
 ! A75   A(27,33,53)           107.2529         estimate D2E/DX2                !
 ! A76   A(32,33,36)           102.1983         estimate D2E/DX2                !
 ! A77   A(32,33,53)           110.3196         estimate D2E/DX2                !
 ! A78   A(36,33,53)           111.6715         estimate D2E/DX2                !
 ! A79   A(32,34,35)           102.8904         estimate D2E/DX2                !
 ! A80   A(32,34,54)           112.3964         estimate D2E/DX2                !
 ! A81   A(32,34,55)           109.3381         estimate D2E/DX2                !
 ! A82   A(35,34,54)           113.4966         estimate D2E/DX2                !
 ! A83   A(35,34,55)           111.0799         estimate D2E/DX2                !
 ! A84   A(54,34,55)           107.6            estimate D2E/DX2                !
 ! A85   A(34,35,36)           110.8985         estimate D2E/DX2                !
 ! A86   A(34,35,37)           128.8699         estimate D2E/DX2                !
 ! A87   A(36,35,37)           120.2274         estimate D2E/DX2                !
 ! A88   A(33,36,35)           110.7931         estimate D2E/DX2                !
 ! A89   A(33,36,40)           128.2608         estimate D2E/DX2                !
 ! A90   A(35,36,40)           120.8832         estimate D2E/DX2                !
 ! A91   A(35,37,38)           118.9927         estimate D2E/DX2                !
 ! A92   A(35,37,56)           120.6399         estimate D2E/DX2                !
 ! A93   A(38,37,56)           120.3646         estimate D2E/DX2                !
 ! A94   A(37,38,39)           120.6485         estimate D2E/DX2                !
 ! A95   A(37,38,57)           119.7095         estimate D2E/DX2                !
 ! A96   A(39,38,57)           119.6387         estimate D2E/DX2                !
 ! A97   A(38,39,40)           120.3803         estimate D2E/DX2                !
 ! A98   A(38,39,58)           119.7921         estimate D2E/DX2                !
 ! A99   A(40,39,58)           119.8268         estimate D2E/DX2                !
 ! A100  A(36,40,39)           118.8612         estimate D2E/DX2                !
 ! A101  A(36,40,59)           120.782          estimate D2E/DX2                !
 ! A102  A(39,40,59)           120.3567         estimate D2E/DX2                !
 ! A103  A(29,41,42)           119.0967         estimate D2E/DX2                !
 ! A104  A(29,41,46)           119.0132         estimate D2E/DX2                !
 ! A105  A(42,41,46)           121.8744         estimate D2E/DX2                !
 ! A106  A(41,42,43)           118.0506         estimate D2E/DX2                !
 ! A107  A(41,42,48)           121.186          estimate D2E/DX2                !
 ! A108  A(43,42,48)           120.7598         estimate D2E/DX2                !
 ! A109  A(42,43,44)           121.8425         estimate D2E/DX2                !
 ! A110  A(42,43,60)           118.7873         estimate D2E/DX2                !
 ! A111  A(44,43,60)           119.3702         estimate D2E/DX2                !
 ! A112  A(43,44,45)           118.3388         estimate D2E/DX2                !
 ! A113  A(43,44,49)           120.8291         estimate D2E/DX2                !
 ! A114  A(45,44,49)           120.8216         estimate D2E/DX2                !
 ! A115  A(44,45,46)           121.8833         estimate D2E/DX2                !
 ! A116  A(44,45,61)           119.3442         estimate D2E/DX2                !
 ! A117  A(46,45,61)           118.7719         estimate D2E/DX2                !
 ! A118  A(41,46,45)           118.0095         estimate D2E/DX2                !
 ! A119  A(41,46,47)           121.1171         estimate D2E/DX2                !
 ! A120  A(45,46,47)           120.8731         estimate D2E/DX2                !
 ! A121  A(46,47,62)           110.7488         estimate D2E/DX2                !
 ! A122  A(46,47,63)           111.0522         estimate D2E/DX2                !
 ! A123  A(46,47,64)           111.3711         estimate D2E/DX2                !
 ! A124  A(62,47,63)           108.4276         estimate D2E/DX2                !
 ! A125  A(62,47,64)           108.2689         estimate D2E/DX2                !
 ! A126  A(63,47,64)           106.8226         estimate D2E/DX2                !
 ! A127  A(42,48,65)           111.2404         estimate D2E/DX2                !
 ! A128  A(42,48,66)           111.3669         estimate D2E/DX2                !
 ! A129  A(42,48,67)           110.7501         estimate D2E/DX2                !
 ! A130  A(65,48,66)           106.9183         estimate D2E/DX2                !
 ! A131  A(65,48,67)           107.9068         estimate D2E/DX2                !
 ! A132  A(66,48,67)           108.4982         estimate D2E/DX2                !
 ! A133  A(44,49,68)           111.411          estimate D2E/DX2                !
 ! A134  A(44,49,69)           110.6679         estimate D2E/DX2                !
 ! A135  A(44,49,70)           111.4016         estimate D2E/DX2                !
 ! A136  A(68,49,69)           107.3179         estimate D2E/DX2                !
 ! A137  A(68,49,70)           108.4504         estimate D2E/DX2                !
 ! A138  A(69,49,70)           107.4125         estimate D2E/DX2                !
 ! A139  L(2,1,28,37,-1)       187.0188         estimate D2E/DX2                !
 ! A140  L(2,13,7,24,-1)       181.2392         estimate D2E/DX2                !
 ! A141  L(2,1,28,37,-2)       178.8743         estimate D2E/DX2                !
 ! A142  L(2,13,7,24,-2)       188.7894         estimate D2E/DX2                !
 ! D1    D(3,2,28,27)          -78.874          estimate D2E/DX2                !
 ! D2    D(3,2,28,29)           85.3692         estimate D2E/DX2                !
 ! D3    D(13,2,28,27)         157.0292         estimate D2E/DX2                !
 ! D4    D(13,2,28,29)         -38.7276         estimate D2E/DX2                !
 ! D5    D(1,2,3,4)            -57.2022         estimate D2E/DX2                !
 ! D6    D(1,2,3,5)             60.8694         estimate D2E/DX2                !
 ! D7    D(1,2,3,21)          -178.1768         estimate D2E/DX2                !
 ! D8    D(13,2,3,4)            75.6208         estimate D2E/DX2                !
 ! D9    D(13,2,3,5)          -166.3076         estimate D2E/DX2                !
 ! D10   D(13,2,3,21)          -45.3538         estimate D2E/DX2                !
 ! D11   D(1,2,13,24)          146.4843         estimate D2E/DX2                !
 ! D12   D(3,2,13,24)           19.3222         estimate D2E/DX2                !
 ! D13   D(2,3,21,22)         -179.407          estimate D2E/DX2                !
 ! D14   D(2,3,21,23)          -59.4342         estimate D2E/DX2                !
 ! D15   D(2,3,21,24)           60.7551         estimate D2E/DX2                !
 ! D16   D(4,3,21,22)           58.9943         estimate D2E/DX2                !
 ! D17   D(4,3,21,23)          178.9671         estimate D2E/DX2                !
 ! D18   D(4,3,21,24)          -60.8436         estimate D2E/DX2                !
 ! D19   D(5,3,21,22)          -57.716          estimate D2E/DX2                !
 ! D20   D(5,3,21,23)           62.2567         estimate D2E/DX2                !
 ! D21   D(5,3,21,24)         -177.554          estimate D2E/DX2                !
 ! D22   D(9,6,8,11)           167.2267         estimate D2E/DX2                !
 ! D23   D(9,6,8,14)           -70.5991         estimate D2E/DX2                !
 ! D24   D(9,6,8,15)            46.985          estimate D2E/DX2                !
 ! D25   D(10,6,8,11)          -74.5291         estimate D2E/DX2                !
 ! D26   D(10,6,8,14)           47.6451         estimate D2E/DX2                !
 ! D27   D(10,6,8,15)          165.2292         estimate D2E/DX2                !
 ! D28   D(20,6,8,11)           43.8503         estimate D2E/DX2                !
 ! D29   D(20,6,8,14)          166.0245         estimate D2E/DX2                !
 ! D30   D(20,6,8,15)          -76.3914         estimate D2E/DX2                !
 ! D31   D(8,6,20,18)          -18.6472         estimate D2E/DX2                !
 ! D32   D(8,6,20,19)          164.2351         estimate D2E/DX2                !
 ! D33   D(9,6,20,18)         -144.958          estimate D2E/DX2                !
 ! D34   D(9,6,20,19)           37.9242         estimate D2E/DX2                !
 ! D35   D(10,6,20,18)         102.4678         estimate D2E/DX2                !
 ! D36   D(10,6,20,19)         -74.65           estimate D2E/DX2                !
 ! D37   D(12,7,11,8)          169.7165         estimate D2E/DX2                !
 ! D38   D(12,7,11,16)         -68.7748         estimate D2E/DX2                !
 ! D39   D(12,7,11,17)          48.3495         estimate D2E/DX2                !
 ! D40   D(13,7,11,8)          -68.5613         estimate D2E/DX2                !
 ! D41   D(13,7,11,16)          52.9474         estimate D2E/DX2                !
 ! D42   D(13,7,11,17)         170.0717         estimate D2E/DX2                !
 ! D43   D(18,7,11,8)           51.521          estimate D2E/DX2                !
 ! D44   D(18,7,11,16)         173.0297         estimate D2E/DX2                !
 ! D45   D(18,7,11,17)         -69.846          estimate D2E/DX2                !
 ! D46   D(11,7,13,24)         115.5026         estimate D2E/DX2                !
 ! D47   D(12,7,13,24)        -120.4331         estimate D2E/DX2                !
 ! D48   D(18,7,13,24)          -8.34           estimate D2E/DX2                !
 ! D49   D(11,7,18,20)         -26.585          estimate D2E/DX2                !
 ! D50   D(12,7,18,20)        -149.1964         estimate D2E/DX2                !
 ! D51   D(13,7,18,20)          96.2133         estimate D2E/DX2                !
 ! D52   D(6,8,11,7)           -59.9216         estimate D2E/DX2                !
 ! D53   D(6,8,11,16)         -179.3627         estimate D2E/DX2                !
 ! D54   D(6,8,11,17)           61.6289         estimate D2E/DX2                !
 ! D55   D(14,8,11,7)          178.9184         estimate D2E/DX2                !
 ! D56   D(14,8,11,16)          59.4773         estimate D2E/DX2                !
 ! D57   D(14,8,11,17)         -59.5311         estimate D2E/DX2                !
 ! D58   D(15,8,11,7)           60.645          estimate D2E/DX2                !
 ! D59   D(15,8,11,16)         -58.7961         estimate D2E/DX2                !
 ! D60   D(15,8,11,17)        -177.8045         estimate D2E/DX2                !
 ! D61   D(2,13,24,21)          14.5186         estimate D2E/DX2                !
 ! D62   D(7,13,24,21)        -174.2708         estimate D2E/DX2                !
 ! D63   D(7,18,20,6)            9.4855         estimate D2E/DX2                !
 ! D64   D(7,18,20,19)        -173.2947         estimate D2E/DX2                !
 ! D65   D(3,21,24,13)         -42.1596         estimate D2E/DX2                !
 ! D66   D(22,21,24,13)       -163.45           estimate D2E/DX2                !
 ! D67   D(23,21,24,13)         79.4156         estimate D2E/DX2                !
 ! D68   D(29,25,26,27)         -0.7716         estimate D2E/DX2                !
 ! D69   D(29,25,26,30)       -175.4507         estimate D2E/DX2                !
 ! D70   D(26,25,29,28)          0.5661         estimate D2E/DX2                !
 ! D71   D(26,25,29,41)       -179.9077         estimate D2E/DX2                !
 ! D72   D(25,26,27,28)          0.7795         estimate D2E/DX2                !
 ! D73   D(25,26,27,33)        177.2331         estimate D2E/DX2                !
 ! D74   D(30,26,27,28)        176.6389         estimate D2E/DX2                !
 ! D75   D(30,26,27,33)         -6.9075         estimate D2E/DX2                !
 ! D76   D(25,26,30,31)        129.7432         estimate D2E/DX2                !
 ! D77   D(25,26,30,50)       -108.9781         estimate D2E/DX2                !
 ! D78   D(25,26,30,51)         11.9268         estimate D2E/DX2                !
 ! D79   D(27,26,30,31)        -44.5018         estimate D2E/DX2                !
 ! D80   D(27,26,30,50)         76.777          estimate D2E/DX2                !
 ! D81   D(27,26,30,51)       -162.3181         estimate D2E/DX2                !
 ! D82   D(26,27,28,1)         168.0075         estimate D2E/DX2                !
 ! D83   D(26,27,28,29)         -0.4181         estimate D2E/DX2                !
 ! D84   D(33,27,28,1)          -7.9403         estimate D2E/DX2                !
 ! D85   D(33,27,28,29)       -176.3659         estimate D2E/DX2                !
 ! D86   D(26,27,33,32)         41.3575         estimate D2E/DX2                !
 ! D87   D(26,27,33,36)        156.2653         estimate D2E/DX2                !
 ! D88   D(26,27,33,53)        -78.6456         estimate D2E/DX2                !
 ! D89   D(28,27,33,32)       -142.8663         estimate D2E/DX2                !
 ! D90   D(28,27,33,36)        -27.9585         estimate D2E/DX2                !
 ! D91   D(28,27,33,53)         97.1306         estimate D2E/DX2                !
 ! D92   D(1,28,29,25)        -171.2909         estimate D2E/DX2                !
 ! D93   D(1,28,29,41)           9.1878         estimate D2E/DX2                !
 ! D94   D(27,28,29,25)         -0.0944         estimate D2E/DX2                !
 ! D95   D(27,28,29,41)       -179.6156         estimate D2E/DX2                !
 ! D96   D(25,29,41,42)         84.0993         estimate D2E/DX2                !
 ! D97   D(25,29,41,46)        -94.4831         estimate D2E/DX2                !
 ! D98   D(28,29,41,42)        -96.429          estimate D2E/DX2                !
 ! D99   D(28,29,41,46)         84.9886         estimate D2E/DX2                !
 ! D100  D(26,30,31,32)         60.1818         estimate D2E/DX2                !
 ! D101  D(50,30,31,32)        -61.8997         estimate D2E/DX2                !
 ! D102  D(51,30,31,32)       -179.5016         estimate D2E/DX2                !
 ! D103  D(30,31,32,33)        -25.1767         estimate D2E/DX2                !
 ! D104  D(30,31,32,34)       -144.9224         estimate D2E/DX2                !
 ! D105  D(30,31,32,52)         94.5574         estimate D2E/DX2                !
 ! D106  D(31,32,33,27)        -25.5147         estimate D2E/DX2                !
 ! D107  D(31,32,33,36)       -148.5115         estimate D2E/DX2                !
 ! D108  D(31,32,33,53)         92.6111         estimate D2E/DX2                !
 ! D109  D(34,32,33,27)         96.9126         estimate D2E/DX2                !
 ! D110  D(34,32,33,36)        -26.0842         estimate D2E/DX2                !
 ! D111  D(34,32,33,53)       -144.9616         estimate D2E/DX2                !
 ! D112  D(52,32,33,27)       -146.7161         estimate D2E/DX2                !
 ! D113  D(52,32,33,36)         90.287          estimate D2E/DX2                !
 ! D114  D(52,32,33,53)        -28.5903         estimate D2E/DX2                !
 ! D115  D(31,32,34,35)        152.4479         estimate D2E/DX2                !
 ! D116  D(31,32,34,54)        -85.0941         estimate D2E/DX2                !
 ! D117  D(31,32,34,55)         34.3264         estimate D2E/DX2                !
 ! D118  D(33,32,34,35)         26.7954         estimate D2E/DX2                !
 ! D119  D(33,32,34,54)        149.2534         estimate D2E/DX2                !
 ! D120  D(33,32,34,55)        -91.3261         estimate D2E/DX2                !
 ! D121  D(52,32,34,35)        -87.3506         estimate D2E/DX2                !
 ! D122  D(52,32,34,54)         35.1074         estimate D2E/DX2                !
 ! D123  D(52,32,34,55)        154.5278         estimate D2E/DX2                !
 ! D124  D(27,33,36,35)       -103.6525         estimate D2E/DX2                !
 ! D125  D(27,33,36,40)         79.2512         estimate D2E/DX2                !
 ! D126  D(32,33,36,35)         15.6627         estimate D2E/DX2                !
 ! D127  D(32,33,36,40)       -161.4336         estimate D2E/DX2                !
 ! D128  D(53,33,36,35)        133.5805         estimate D2E/DX2                !
 ! D129  D(53,33,36,40)        -43.5158         estimate D2E/DX2                !
 ! D130  D(32,34,35,36)        -17.8558         estimate D2E/DX2                !
 ! D131  D(32,34,35,37)        161.3931         estimate D2E/DX2                !
 ! D132  D(54,34,35,36)       -139.5708         estimate D2E/DX2                !
 ! D133  D(54,34,35,37)         39.6781         estimate D2E/DX2                !
 ! D134  D(55,34,35,36)         99.0344         estimate D2E/DX2                !
 ! D135  D(55,34,35,37)        -81.7167         estimate D2E/DX2                !
 ! D136  D(34,35,36,33)          1.1603         estimate D2E/DX2                !
 ! D137  D(34,35,36,40)        178.5038         estimate D2E/DX2                !
 ! D138  D(37,35,36,33)       -178.1629         estimate D2E/DX2                !
 ! D139  D(37,35,36,40)         -0.8194         estimate D2E/DX2                !
 ! D140  D(34,35,37,38)       -179.0327         estimate D2E/DX2                !
 ! D141  D(34,35,37,56)          0.362          estimate D2E/DX2                !
 ! D142  D(36,35,37,38)          0.1551         estimate D2E/DX2                !
 ! D143  D(36,35,37,56)        179.5498         estimate D2E/DX2                !
 ! D144  D(33,36,40,39)        177.7202         estimate D2E/DX2                !
 ! D145  D(33,36,40,59)         -2.2177         estimate D2E/DX2                !
 ! D146  D(35,36,40,39)          0.8835         estimate D2E/DX2                !
 ! D147  D(35,36,40,59)       -179.0544         estimate D2E/DX2                !
 ! D148  D(35,37,38,39)          0.4242         estimate D2E/DX2                !
 ! D149  D(35,37,38,57)        179.7612         estimate D2E/DX2                !
 ! D150  D(56,37,38,39)       -178.9721         estimate D2E/DX2                !
 ! D151  D(56,37,38,57)          0.3648         estimate D2E/DX2                !
 ! D152  D(37,38,39,40)         -0.3539         estimate D2E/DX2                !
 ! D153  D(37,38,39,58)        179.3241         estimate D2E/DX2                !
 ! D154  D(57,38,39,40)       -179.6913         estimate D2E/DX2                !
 ! D155  D(57,38,39,58)         -0.0133         estimate D2E/DX2                !
 ! D156  D(38,39,40,36)         -0.2997         estimate D2E/DX2                !
 ! D157  D(38,39,40,59)        179.6385         estimate D2E/DX2                !
 ! D158  D(58,39,40,36)       -179.9775         estimate D2E/DX2                !
 ! D159  D(58,39,40,59)         -0.0394         estimate D2E/DX2                !
 ! D160  D(29,41,42,43)       -178.8187         estimate D2E/DX2                !
 ! D161  D(29,41,42,48)          0.4931         estimate D2E/DX2                !
 ! D162  D(46,41,42,43)         -0.2786         estimate D2E/DX2                !
 ! D163  D(46,41,42,48)        179.0332         estimate D2E/DX2                !
 ! D164  D(29,41,46,45)        178.6433         estimate D2E/DX2                !
 ! D165  D(29,41,46,47)         -1.141          estimate D2E/DX2                !
 ! D166  D(42,41,46,45)          0.1019         estimate D2E/DX2                !
 ! D167  D(42,41,46,47)       -179.6824         estimate D2E/DX2                !
 ! D168  D(41,42,43,44)          0.1512         estimate D2E/DX2                !
 ! D169  D(41,42,43,60)       -179.9289         estimate D2E/DX2                !
 ! D170  D(48,42,43,44)       -179.1636         estimate D2E/DX2                !
 ! D171  D(48,42,43,60)          0.7562         estimate D2E/DX2                !
 ! D172  D(41,42,48,65)        -69.1198         estimate D2E/DX2                !
 ! D173  D(41,42,48,66)         50.0451         estimate D2E/DX2                !
 ! D174  D(41,42,48,67)        170.8788         estimate D2E/DX2                !
 ! D175  D(43,42,48,65)        110.1734         estimate D2E/DX2                !
 ! D176  D(43,42,48,66)       -130.6617         estimate D2E/DX2                !
 ! D177  D(43,42,48,67)         -9.828          estimate D2E/DX2                !
 ! D178  D(42,43,44,45)          0.146          estimate D2E/DX2                !
 ! D179  D(42,43,44,49)       -178.683          estimate D2E/DX2                !
 ! D180  D(60,43,44,45)       -179.7734         estimate D2E/DX2                !
 ! D181  D(60,43,44,49)          1.3976         estimate D2E/DX2                !
 ! D182  D(43,44,45,46)         -0.3334         estimate D2E/DX2                !
 ! D183  D(43,44,45,61)        179.3737         estimate D2E/DX2                !
 ! D184  D(49,44,45,46)        178.4956         estimate D2E/DX2                !
 ! D185  D(49,44,45,61)         -1.7973         estimate D2E/DX2                !
 ! D186  D(43,44,49,68)        -30.5106         estimate D2E/DX2                !
 ! D187  D(43,44,49,69)         88.807          estimate D2E/DX2                !
 ! D188  D(43,44,49,70)       -151.7626         estimate D2E/DX2                !
 ! D189  D(45,44,49,68)        150.6895         estimate D2E/DX2                !
 ! D190  D(45,44,49,69)        -89.9928         estimate D2E/DX2                !
 ! D191  D(45,44,49,70)         29.4376         estimate D2E/DX2                !
 ! D192  D(44,45,46,41)          0.2121         estimate D2E/DX2                !
 ! D193  D(44,45,46,47)        179.997          estimate D2E/DX2                !
 ! D194  D(61,45,46,41)       -179.4966         estimate D2E/DX2                !
 ! D195  D(61,45,46,47)          0.2882         estimate D2E/DX2                !
 ! D196  D(41,46,47,62)        177.3424         estimate D2E/DX2                !
 ! D197  D(41,46,47,63)        -62.1251         estimate D2E/DX2                !
 ! D198  D(41,46,47,64)         56.7974         estimate D2E/DX2                !
 ! D199  D(45,46,47,62)         -2.4357         estimate D2E/DX2                !
 ! D200  D(45,46,47,63)        118.0968         estimate D2E/DX2                !
 ! D201  D(45,46,47,64)       -122.9807         estimate D2E/DX2                !
 --------------------------------------------------------------------------------
 Trust Radius=3.00D-01 FncErr=1.00D-07 GrdErr=1.00D-06
 Number of steps in this run=    420 maximum allowed number of steps=    420.
 GradGradGradGradGradGradGradGradGradGradGradGradGradGradGradGradGradGrad

 Leave Link  103 at Thu Feb 17 07:38:23 2022, MaxMem=  6710886400 cpu:         0.2
 (Enter /usr/local/gqt/g09/l202.exe)
 Stoichiometry    C28H35N3O4
 Framework group  C1[X(C28H35N3O4)]
 Deg. of freedom   204
 Full point group                 C1      NOp   1
 Largest Abelian subgroup         C1      NOp   1
 Largest concise Abelian subgroup C1      NOp   1
                         Standard orientation:                         
 ---------------------------------------------------------------------
 Center     Atomic      Atomic             Coordinates (Angstroms)
 Number     Number       Type             X           Y           Z
 ---------------------------------------------------------------------
      1          1           0        0.145804    0.630215    0.645780
      2          8           0       -0.630176    1.201110    0.876253
      3          6           0       -0.879593    1.096511    2.256190
      4          1           0       -1.052670    0.052343    2.537219
      5          1           0       -0.012688    1.439946    2.832908
      6          6           0       -5.498589    2.836714   -0.509846
      7          6           0       -3.591117    0.705359   -0.896522
      8          6           0       -4.262874    3.029927   -1.372662
      9          1           0       -5.698332    3.689155    0.133999
     10          1           0       -6.380879    2.720399   -1.143610
     11          6           0       -3.881234    1.698657   -1.990630
     12          1           0       -3.487127   -0.306814   -1.274480
     13          1           0       -2.681222    0.963345   -0.355833
     14          1           0       -4.461571    3.779072   -2.135803
     15          1           0       -3.436393    3.402431   -0.766659
     16          1           0       -2.990943    1.787946   -2.610585
     17          1           0       -4.687560    1.336413   -2.630359
     18          8           0       -4.648070    0.620897    0.088798
     19          8           0       -6.252679    1.480146    1.292456
     20          6           0       -5.486367    1.613834    0.367238
     21          6           0       -2.087569    1.924386    2.624524
     22          1           0       -2.284877    1.859808    3.693477
     23          1           0       -1.929353    2.971213    2.369880
     24          1           0       -2.970565    1.571804    2.094548
     25          7           0        2.260551   -2.773152    0.045894
     26          6           0        3.337080   -1.998338    0.280325
     27          7           0        2.859095   -0.708613    0.429835
     28          6           0        1.513308   -0.631813    0.316305
     29          7           0        1.165572   -1.923955    0.079856
     30          6           0        4.804573   -2.187716    0.309987
     31          8           0        5.391000   -1.176960   -0.490468
     32          6           0        5.127679    0.144182   -0.069735
     33          6           0        3.820102    0.340352    0.757997
     34          6           0        4.991568    1.072694   -1.275702
     35          6           0        4.084301    2.149445   -0.767426
     36          6           0        3.408190    1.730778    0.375024
     37          6           0        3.878967    3.423603   -1.272002
     38          6           0        2.993982    4.271574   -0.619123
     39          6           0        2.329153    3.854751    0.528682
     40          6           0        2.535681    2.579062    1.035430
     41          6           0       -0.176868   -2.368507   -0.123729
     42          6           0       -0.888219   -2.893224    0.954540
     43          6           0       -2.183993   -3.342288    0.726512
     44          6           0       -2.770193   -3.281729   -0.532257
     45          6           0       -2.025314   -2.757387   -1.582644
     46          6           0       -0.727810   -2.292610   -1.402312
     47          6           0        0.053991   -1.732324   -2.549698
     48          6           0       -0.273691   -2.987094    2.317045
     49          6           0       -4.179006   -3.745251   -0.746421
     50          1           0        5.195999   -2.137481    1.330872
     51          1           0        5.089237   -3.144824   -0.112914
     52          1           0        5.948110    0.486522    0.565416
     53          1           0        4.031707    0.262708    1.823238
     54          1           0        5.952563    1.443861   -1.623289
     55          1           0        4.530292    0.527977   -2.100811
     56          1           0        4.405635    3.757997   -2.154108
     57          1           0        2.828126    5.268590   -1.000198
     58          1           0        1.652341    4.529255    1.031455
     59          1           0        2.023789    2.257889    1.929813
     60          1           0       -2.746970   -3.750440    1.554651
     61          1           0       -2.461888   -2.711986   -2.571165
     62          1           0       -0.516607   -1.796012   -3.471698
     63          1           0        0.310984   -0.688682   -2.375356
     64          1           0        0.991535   -2.268533   -2.690646
     65          1           0        0.520348   -3.733428    2.341542
     66          1           0        0.171906   -2.040630    2.617106
     67          1           0       -1.018240   -3.267236    3.056522
     68          1           0       -4.441814   -4.546924   -0.060229
     69          1           0       -4.882677   -2.929267   -0.577159
     70          1           0       -4.329947   -4.099439   -1.763463
 ---------------------------------------------------------------------
 Rotational constants (GHZ):      0.1529820      0.0768126      0.0598557
 Leave Link  202 at Thu Feb 17 07:38:23 2022, MaxMem=  6710886400 cpu:         0.0
 (Enter /usr/local/gqt/g09/l301.exe)
 Standard basis: 6-311+G(d,p) (5D, 7F)
 Ernie: Thresh=  0.10000D-02 Tol=  0.10000D-05 Strict=F.
 There are  1015 symmetry adapted cartesian basis functions of A   symmetry.
 There are   980 symmetry adapted basis functions of A   symmetry.
   980 basis functions,  1540 primitive gaussians,  1015 cartesian basis functions
   128 alpha electrons      128 beta electrons
       nuclear repulsion energy      3824.9109514463 Hartrees.
 IExCor= 5547 DFT=T Ex+Corr=N12SX ExCW=0 ScaHFX=  0.250000
 ScaDFX=  1.000000  1.000000  1.000000  1.000000 ScalE2=  1.000000  1.000000
 IRadAn=      0 IRanWt=     -1 IRanGd=            0 ICorTp=0 IEmpDi=  4
  HFx wShort=  0.110000 wLong=  0.000000 cFull=  0.000000 cShort=  1.000000 cLong=  0.000000
  DFx wShort=  0.110000 wLong=  0.000000 cFull=  0.000000 cShort=  1.000000 cLong=  0.000000
 NAtoms=   70 NActive=   70 NUniq=   70 SFac= 1.00D+00 NAtFMM=   60 NAOKFM=T Big=T
 Integral buffers will be    131072 words long.
 Raffenetti 2 integral format.
 Two-electron integral symmetry is turned on.
 ------------------------------------------------------------------------------
 Polarizable Continuum Model (PCM)
 =================================
 Model                : PCM (using non-symmetric T matrix).
 Atomic radii         : UFF (Universal Force Field).
 Polarization charges : Total charges.
 Charge compensation  : None.
 Solution method      : On-the-fly selection.
 Cavity type          : Scaled VdW (van der Waals Surface) (Alpha=1.100).
 Cavity algorithm     : GePol (No added spheres)
                        Default sphere list used, NSphG=   70.
                        Lebedev-Laikov grids with approx.  5.0 points / Ang**2.
                        Smoothing algorithm: Karplus/York (Gamma=1.0000).
                        Polarization charges: spherical gaussians, with
                                              point-specific exponents (IZeta= 3).
                        Self-potential: point-specific (ISelfS= 7).
                        Self-field    : sphere-specific E.n sum rule (ISelfD= 2).
 1st derivatives      : Analytical E(r).r(x)/FMM algorithm (CHGder, D1EAlg=3).
                        Cavity 1st derivative terms included.
 Solvent              : Ethanol, Eps=  24.852000 Eps(inf)=   1.852593
 ------------------------------------------------------------------------------
 GePol: Number of generator spheres                  =      70
 GePol: Total number of spheres                      =      70
 GePol: Number of exposed spheres                    =      70 (100.00%)
 GePol: Number of points                             =    4861
 GePol: Average weight of points                     =       0.13
 GePol: Minimum weight of points                     =   0.25D-10
 GePol: Maximum weight of points                     =    0.20577
 GePol: Number of points with low weight             =     365
 GePol: Fraction of low-weight points (<1% of avg)   =       7.51%
 GePol: Cavity surface area                          =    608.835 Ang**2
 GePol: Cavity volume                                =    687.636 Ang**3
 Leave Link  301 at Thu Feb 17 07:38:23 2022, MaxMem=  6710886400 cpu:         0.7
 (Enter /usr/local/gqt/g09/l302.exe)
 NPDir=0 NMtPBC=     1 NCelOv=     1 NCel=       1 NClECP=     1 NCelD=      1
         NCelK=      1 NCelE2=     1 NClLst=     1 CellRange=     0.0.
 One-electron integrals computed using PRISM.
 NBasis=   980 RedAO= T EigKep=  1.15D-06  NBF=   980
 NBsUse=   974 1.00D-06 EigRej=  9.31D-07 NBFU=   974
 Precomputing XC quadrature grid using
 IXCGrd= 4 IRadAn=           0 IRanWt=          -1 IRanGd=           0 AccXCQ= 0.00D+00.
 Generated NRdTot=       0 NPtTot=           0 NUsed=           0 NTot=          32
 NSgBfM=   998   998   998   998   998 MxSgAt=    70 MxSgA2=    70.
 Leave Link  302 at Thu Feb 17 07:38:25 2022, MaxMem=  6710886400 cpu:        45.7
 (Enter /usr/local/gqt/g09/l303.exe)
 DipDrv:  MaxL=1.
 Leave Link  303 at Thu Feb 17 07:38:26 2022, MaxMem=  6710886400 cpu:         2.5
 (Enter /usr/local/gqt/g09/l401.exe)
 ExpMin= 4.38D-02 ExpMax= 8.59D+03 ExpMxC= 1.30D+03 IAcc=2 IRadAn=         4 AccDes= 0.00D+00
 Harris functional with IExCor= 5547 and IRadAn=       4 diagonalized for initial guess.
 HarFok:  IExCor= 5547 AccDes= 0.00D+00 IRadAn=         4 IDoV= 1 UseB2=F ITyADJ=14
 ICtDFT=  3500011 ScaDFX=  1.000000  1.000000  1.000000  1.000000
 FoFCou: FMM=F IPFlag=           0 FMFlag=      100000 FMFlg1=        2001
         NFxFlg=           0 DoJE=T BraDBF=F KetDBF=T FulRan=T
         wScrn=  0.000000 ICntrl=     500 IOpCl=  0 I1Cent=   200000004 NGrid=           0
         NMat0=    1 NMatS0=      1 NMatT0=    0 NMatD0=    1 NMtDS0=    0 NMtDT0=    0
 Petite list used in FoFCou.
 Harris En= -1504.99574107075    
 JPrj=0 DoOrth=F DoCkMO=F.
 Leave Link  401 at Thu Feb 17 07:38:36 2022, MaxMem=  6710886400 cpu:       211.9
 (Enter /usr/local/gqt/g09/l502.exe)
 Closed shell SCF:
 Using DIIS extrapolation, IDIIS=  1040.
 Integral symmetry usage will be decided dynamically.
 IVT=     3137085 IEndB=     3137085 NGot=  6710886400 MDV=  6708797196
 LenX=  6708797196 LenY=  6707765956
 Requested convergence on RMS density matrix=1.00D-08 within 128 cycles.
 Requested convergence on MAX density matrix=1.00D-06.
 Requested convergence on             energy=1.00D-06.
 No special actions if energy rises.
 Fock matrices will be formed incrementally for  20 cycles.

 Cycle   1  Pass 1  IDiag  1:
 FoFJK:  IHMeth= 1 ICntrl=       0 DoSepK=T KAlg= 0 I1Cent=   0 FoldK=F
 IRaf=         1 NMat=   1 IRICut=       1 DoRegI=T DoRafI=F ISym2E= 0.
 FoFCou: FMM=T IPFlag=           0 FMFlag=      100000 FMFlg1=        2001
         NFxFlg=           0 DoJE=T BraDBF=F KetDBF=F FulRan=T
         wScrn=  0.000000 ICntrl=     500 IOpCl=  0 I1Cent=           0 NGrid=           0
         NMat0=    1 NMatS0=      1 NMatT0=    0 NMatD0=    1 NMtDS0=    0 NMtDT0=    0
 Symmetry not used in FoFCou.
 FMM levels:  10  Number of levels for PrismC:   9
 Inv3:  Mode=1 IEnd=    70887963.
 Iteration    1 A*A^-1 deviation from unit magnitude is 8.77D-15 for   4857.
 Iteration    1 A*A^-1 deviation from orthogonality  is 4.47D-15 for   3873   2106.
 Iteration    1 A^-1*A deviation from unit magnitude is 7.77D-15 for   4846.
 Iteration    1 A^-1*A deviation from orthogonality  is 4.36D-11 for   4648   4639.
 E= -1552.29757358435    
 DIIS: error= 4.99D-02 at cycle   1 NSaved=   1.
 NSaved= 1 IEnMin= 1 EnMin= -1552.29757358435     IErMin= 1 ErrMin= 4.99D-02
 ErrMax= 4.99D-02  0.00D+00 EMaxC= 1.00D-01 BMatC= 3.85D+00 BMatP= 3.85D+00
 IDIUse=3 WtCom= 5.01D-01 WtEn= 4.99D-01
 Coeff-Com:  0.100D+01
 Coeff-En:   0.100D+01
 Coeff:      0.100D+01
 Gap=     0.298 Goal=   None    Shift=    0.000
 GapD=    0.298 DampG=1.000 DampE=0.500 DampFc=0.5000 IDamp=-1.
 Damping current iteration by 5.00D-01
 RMSDP=1.21D-02 MaxDP=4.09D+00              OVMax= 1.74D-01

 Cycle   2  Pass 1  IDiag  1:
 RMSU=  4.22D-03    CP:  9.13D-01
 E= -1552.52039932440     Delta-E=       -0.222825740051 Rises=F Damp=T
 DIIS: error= 2.21D-02 at cycle   2 NSaved=   2.
 NSaved= 2 IEnMin= 2 EnMin= -1552.52039932440     IErMin= 2 ErrMin= 2.21D-02
 ErrMax= 2.21D-02  0.00D+00 EMaxC= 1.00D-01 BMatC= 7.89D-01 BMatP= 3.85D+00
 IDIUse=3 WtCom= 7.79D-01 WtEn= 2.21D-01
 Coeff-Com: -0.477D+00 0.148D+01
 Coeff-En:   0.111D+00 0.889D+00
 Coeff:     -0.347D+00 0.135D+01
 Gap=     0.288 Goal=   None    Shift=    0.000
 RMSDP=8.33D-03 MaxDP=1.30D+00 DE=-2.23D-01 OVMax= 3.09D-01

 Cycle   3  Pass 1  IDiag  1:
 RMSU=  6.30D-03    CP:  8.42D-01  1.12D-02
 E= -1552.30455297265     Delta-E=        0.215846351742 Rises=F Damp=F
 DIIS: error= 2.88D-02 at cycle   3 NSaved=   3.
 NSaved= 3 IEnMin= 2 EnMin= -1552.52039932440     IErMin= 2 ErrMin= 2.21D-02
 ErrMax= 2.88D-02  0.00D+00 EMaxC= 1.00D-01 BMatC= 6.66D-01 BMatP= 7.89D-01
 IDIUse=3 WtCom= 7.12D-01 WtEn= 2.88D-01
 Coeff-Com: -0.408D+00 0.924D+00 0.484D+00
 Coeff-En:   0.000D+00 0.692D+00 0.308D+00
 Coeff:     -0.291D+00 0.858D+00 0.433D+00
 Gap=     0.249 Goal=   None    Shift=    0.000
 RMSDP=7.68D-03 MaxDP=2.95D+00 DE= 2.16D-01 OVMax= 2.10D-01

 Cycle   4  Pass 1  IDiag  1:
 RMSU=  2.15D-03    CP:  7.73D-01  1.03D+00  2.20D-01
 E= -1552.82879974021     Delta-E=       -0.524246767557 Rises=F Damp=F
 DIIS: error= 7.41D-03 at cycle   4 NSaved=   4.
 NSaved= 4 IEnMin= 4 EnMin= -1552.82879974021     IErMin= 4 ErrMin= 7.41D-03
 ErrMax= 7.41D-03  0.00D+00 EMaxC= 1.00D-01 BMatC= 4.18D-02 BMatP= 6.66D-01
 IDIUse=3 WtCom= 9.26D-01 WtEn= 7.41D-02
 Coeff-Com: -0.202D+00 0.451D+00 0.302D+00 0.448D+00
 Coeff-En:   0.000D+00 0.000D+00 0.727D-02 0.993D+00
 Coeff:     -0.187D+00 0.418D+00 0.280D+00 0.489D+00
 Gap=     0.211 Goal=   None    Shift=    0.000
 RMSDP=2.36D-03 MaxDP=8.27D-01 DE=-5.24D-01 OVMax= 7.10D-02

 Cycle   5  Pass 1  IDiag  1:
 RMSU=  9.48D-04    CP:  7.97D-01  9.65D-01  4.33D-01  4.56D-01
 E= -1552.86129319583     Delta-E=       -0.032493455620 Rises=F Damp=F
 DIIS: error= 2.29D-03 at cycle   5 NSaved=   5.
 NSaved= 5 IEnMin= 5 EnMin= -1552.86129319583     IErMin= 5 ErrMin= 2.29D-03
 ErrMax= 2.29D-03  0.00D+00 EMaxC= 1.00D-01 BMatC= 4.59D-03 BMatP= 4.18D-02
 IDIUse=3 WtCom= 9.77D-01 WtEn= 2.29D-02
 Coeff-Com: -0.636D-01 0.143D+00 0.109D+00 0.300D+00 0.511D+00
 Coeff-En:   0.000D+00 0.000D+00 0.000D+00 0.104D+00 0.896D+00
 Coeff:     -0.622D-01 0.140D+00 0.107D+00 0.296D+00 0.520D+00
 Gap=     0.208 Goal=   None    Shift=    0.000
 RMSDP=7.64D-04 MaxDP=2.31D-01 DE=-3.25D-02 OVMax= 2.29D-02

 Cycle   6  Pass 1  IDiag  1:
 RMSU=  2.88D-04    CP:  7.89D-01  9.79D-01  3.81D-01  6.13D-01  6.25D-01
 E= -1552.86476431346     Delta-E=       -0.003471117629 Rises=F Damp=F
 DIIS: error= 7.42D-04 at cycle   6 NSaved=   6.
 NSaved= 6 IEnMin= 6 EnMin= -1552.86476431346     IErMin= 6 ErrMin= 7.42D-04
 ErrMax= 7.42D-04  0.00D+00 EMaxC= 1.00D-01 BMatC= 5.27D-04 BMatP= 4.59D-03
 IDIUse=3 WtCom= 9.93D-01 WtEn= 7.42D-03
 Coeff-Com: -0.155D-04 0.373D-03 0.896D-02 0.913D-01 0.324D+00 0.575D+00
 Coeff-En:   0.000D+00 0.000D+00 0.000D+00 0.000D+00 0.106D+00 0.894D+00
 Coeff:     -0.154D-04 0.370D-03 0.890D-02 0.907D-01 0.322D+00 0.578D+00
 Gap=     0.207 Goal=   None    Shift=    0.000
 RMSDP=2.08D-04 MaxDP=6.77D-02 DE=-3.47D-03 OVMax= 8.01D-03

 Cycle   7  Pass 1  IDiag  1:
 RMSU=  8.07D-05    CP:  7.91D-01  9.70D-01  3.96D-01  5.88D-01  7.12D-01
                    CP:  7.17D-01
 E= -1552.86518859933     Delta-E=       -0.000424285873 Rises=F Damp=F
 DIIS: error= 2.03D-04 at cycle   7 NSaved=   7.
 NSaved= 7 IEnMin= 7 EnMin= -1552.86518859933     IErMin= 7 ErrMin= 2.03D-04
 ErrMax= 2.03D-04  0.00D+00 EMaxC= 1.00D-01 BMatC= 4.88D-05 BMatP= 5.27D-04
 IDIUse=3 WtCom= 9.98D-01 WtEn= 2.03D-03
 Coeff-Com:  0.275D-02-0.590D-02 0.451D-03 0.422D-01 0.174D+00 0.360D+00
 Coeff-Com:  0.426D+00
 Coeff-En:   0.000D+00 0.000D+00 0.000D+00 0.000D+00 0.000D+00 0.000D+00
 Coeff-En:   0.100D+01
 Coeff:      0.274D-02-0.589D-02 0.450D-03 0.421D-01 0.174D+00 0.359D+00
 Coeff:      0.428D+00
 Gap=     0.207 Goal=   None    Shift=    0.000
 RMSDP=9.00D-05 MaxDP=3.67D-02 DE=-4.24D-04 OVMax= 2.64D-03

 Cycle   8  Pass 1  IDiag  1:
 RMSU=  2.79D-05    CP:  7.90D-01  9.71D-01  3.90D-01  6.00D-01  6.97D-01
                    CP:  7.63D-01  7.00D-01
 E= -1552.86522667192     Delta-E=       -0.000038072584 Rises=F Damp=F
 DIIS: error= 1.38D-04 at cycle   8 NSaved=   8.
 NSaved= 8 IEnMin= 8 EnMin= -1552.86522667192     IErMin= 8 ErrMin= 1.38D-04
 ErrMax= 1.38D-04  0.00D+00 EMaxC= 1.00D-01 BMatC= 4.54D-06 BMatP= 4.88D-05
 IDIUse=3 WtCom= 9.99D-01 WtEn= 1.38D-03
 Coeff-Com:  0.126D-02-0.268D-02-0.129D-02 0.650D-02 0.333D-01 0.898D-01
 Coeff-Com:  0.252D+00 0.621D+00
 Coeff-En:   0.000D+00 0.000D+00 0.000D+00 0.000D+00 0.000D+00 0.000D+00
 Coeff-En:   0.639D-01 0.936D+00
 Coeff:      0.126D-02-0.268D-02-0.128D-02 0.649D-02 0.332D-01 0.896D-01
 Coeff:      0.252D+00 0.622D+00
 Gap=     0.207 Goal=   None    Shift=    0.000
 RMSDP=1.27D-05 MaxDP=2.01D-03 DE=-3.81D-05 OVMax= 5.83D-04

 Cycle   9  Pass 1  IDiag  1:
 RMSU=  9.33D-06    CP:  7.90D-01  9.72D-01  3.90D-01  5.98D-01  6.98D-01
                    CP:  7.68D-01  7.01D-01  8.37D-01
 E= -1552.86522985512     Delta-E=       -0.000003183207 Rises=F Damp=F
 DIIS: error= 3.84D-05 at cycle   9 NSaved=   9.
 NSaved= 9 IEnMin= 9 EnMin= -1552.86522985512     IErMin= 9 ErrMin= 3.84D-05
 ErrMax= 3.84D-05  0.00D+00 EMaxC= 1.00D-01 BMatC= 4.37D-07 BMatP= 4.54D-06
 IDIUse=1 WtCom= 1.00D+00 WtEn= 0.00D+00
 Coeff-Com:  0.339D-03-0.714D-03-0.529D-03 0.825D-03 0.558D-02 0.234D-01
 Coeff-Com:  0.109D+00 0.349D+00 0.513D+00
 Coeff:      0.339D-03-0.714D-03-0.529D-03 0.825D-03 0.558D-02 0.234D-01
 Coeff:      0.109D+00 0.349D+00 0.513D+00
 Gap=     0.207 Goal=   None    Shift=    0.000
 RMSDP=4.80D-06 MaxDP=5.00D-04 DE=-3.18D-06 OVMax= 1.67D-04

 Cycle  10  Pass 1  IDiag  1:
 RMSU=  2.84D-06    CP:  7.90D-01  9.72D-01  3.90D-01  5.99D-01  6.97D-01
                    CP:  7.68D-01  7.23D-01  8.09D-01  9.54D-01
 E= -1552.86523017571     Delta-E=       -0.000000320587 Rises=F Damp=F
 DIIS: error= 1.42D-05 at cycle  10 NSaved=  10.
 NSaved=10 IEnMin=10 EnMin= -1552.86523017571     IErMin=10 ErrMin= 1.42D-05
 ErrMax= 1.42D-05  0.00D+00 EMaxC= 1.00D-01 BMatC= 5.70D-08 BMatP= 4.37D-07
 IDIUse=1 WtCom= 1.00D+00 WtEn= 0.00D+00
 Coeff-Com:  0.475D-04-0.102D-03-0.153D-03-0.528D-03-0.149D-02 0.148D-02
 Coeff-Com:  0.281D-01 0.117D+00 0.301D+00 0.555D+00
 Coeff:      0.475D-04-0.102D-03-0.153D-03-0.528D-03-0.149D-02 0.148D-02
 Coeff:      0.281D-01 0.117D+00 0.301D+00 0.555D+00
 Gap=     0.207 Goal=   None    Shift=    0.000
 RMSDP=2.06D-06 MaxDP=3.36D-04 DE=-3.21D-07 OVMax= 6.86D-05

 Cycle  11  Pass 1  IDiag  1:
 RMSU=  1.21D-06    CP:  7.90D-01  9.72D-01  3.90D-01  5.99D-01  6.97D-01
                    CP:  7.70D-01  7.19D-01  8.44D-01  9.05D-01  6.94D-01
 E= -1552.86523022233     Delta-E=       -0.000000046623 Rises=F Damp=F
 DIIS: error= 2.28D-06 at cycle  11 NSaved=  11.
 NSaved=11 IEnMin=11 EnMin= -1552.86523022233     IErMin=11 ErrMin= 2.28D-06
 ErrMax= 2.28D-06  0.00D+00 EMaxC= 1.00D-01 BMatC= 6.24D-09 BMatP= 5.70D-08
 IDIUse=1 WtCom= 1.00D+00 WtEn= 0.00D+00
 Coeff-Com:  0.143D-04-0.309D-04-0.425D-04-0.323D-03-0.100D-02-0.426D-03
 Coeff-Com:  0.618D-02 0.348D-01 0.121D+00 0.309D+00 0.531D+00
 Coeff:      0.143D-04-0.309D-04-0.425D-04-0.323D-03-0.100D-02-0.426D-03
 Coeff:      0.618D-02 0.348D-01 0.121D+00 0.309D+00 0.531D+00
 Gap=     0.207 Goal=   None    Shift=    0.000
 RMSDP=5.31D-07 MaxDP=6.41D-05 DE=-4.66D-08 OVMax= 1.69D-05

 Cycle  12  Pass 1  IDiag  1:
 RMSU=  3.24D-07    CP:  7.90D-01  9.72D-01  3.90D-01  5.99D-01  6.97D-01
                    CP:  7.70D-01  7.21D-01  8.41D-01  9.05D-01  7.40D-01
                    CP:  8.09D-01
 E= -1552.86523022741     Delta-E=       -0.000000005078 Rises=F Damp=F
 DIIS: error= 9.20D-07 at cycle  12 NSaved=  12.
 NSaved=12 IEnMin=12 EnMin= -1552.86523022741     IErMin=12 ErrMin= 9.20D-07
 ErrMax= 9.20D-07  0.00D+00 EMaxC= 1.00D-01 BMatC= 5.80D-10 BMatP= 6.24D-09
 IDIUse=1 WtCom= 1.00D+00 WtEn= 0.00D+00
 Coeff-Com:  0.204D-05-0.506D-05 0.284D-06-0.125D-03-0.405D-03-0.508D-03
 Coeff-Com: -0.100D-02 0.213D-02 0.221D-01 0.809D-01 0.267D+00 0.630D+00
 Coeff:      0.204D-05-0.506D-05 0.284D-06-0.125D-03-0.405D-03-0.508D-03
 Coeff:     -0.100D-02 0.213D-02 0.221D-01 0.809D-01 0.267D+00 0.630D+00
 Gap=     0.207 Goal=   None    Shift=    0.000
 RMSDP=3.48D-07 MaxDP=1.04D-04 DE=-5.08D-09 OVMax= 4.74D-06

 Cycle  13  Pass 1  IDiag  1:
 RMSU=  9.75D-08    CP:  7.90D-01  9.72D-01  3.90D-01  5.99D-01  6.97D-01
                    CP:  7.70D-01  7.20D-01  8.45D-01  9.11D-01  7.38D-01
                    CP:  8.57D-01  9.13D-01
 E= -1552.86523022765     Delta-E=       -0.000000000235 Rises=F Damp=F
 DIIS: error= 3.38D-07 at cycle  13 NSaved=  13.
 NSaved=13 IEnMin=13 EnMin= -1552.86523022765     IErMin=13 ErrMin= 3.38D-07
 ErrMax= 3.38D-07  0.00D+00 EMaxC= 1.00D-01 BMatC= 9.79D-11 BMatP= 5.80D-10
 IDIUse=1 WtCom= 1.00D+00 WtEn= 0.00D+00
 Coeff-Com:  0.704D-06-0.221D-05 0.495D-05-0.261D-04-0.803D-04-0.185D-03
 Coeff-Com: -0.147D-02-0.372D-02-0.465D-02 0.423D-03 0.812D-01 0.363D+00
 Coeff-Com:  0.565D+00
 Coeff:      0.704D-06-0.221D-05 0.495D-05-0.261D-04-0.803D-04-0.185D-03
 Coeff:     -0.147D-02-0.372D-02-0.465D-02 0.423D-03 0.812D-01 0.363D+00
 Coeff:      0.565D+00
 Gap=     0.207 Goal=   None    Shift=    0.000
 RMSDP=7.44D-08 MaxDP=8.10D-06 DE=-2.35D-10 OVMax= 1.96D-06

 Cycle  14  Pass 1  IDiag  1:
 RMSU=  4.42D-08    CP:  7.90D-01  9.72D-01  3.90D-01  5.99D-01  6.97D-01
                    CP:  7.70D-01  7.20D-01  8.45D-01  9.13D-01  7.42D-01
                    CP:  8.72D-01  9.04D-01  8.53D-01
 E= -1552.86523022776     Delta-E=       -0.000000000109 Rises=F Damp=F
 DIIS: error= 5.89D-08 at cycle  14 NSaved=  14.
 NSaved=14 IEnMin=14 EnMin= -1552.86523022776     IErMin=14 ErrMin= 5.89D-08
 ErrMax= 5.89D-08  0.00D+00 EMaxC= 1.00D-01 BMatC= 4.41D-12 BMatP= 9.79D-11
 IDIUse=1 WtCom= 1.00D+00 WtEn= 0.00D+00
 Coeff-Com: -0.333D-06 0.521D-06 0.187D-05-0.157D-05-0.879D-05-0.402D-04
 Coeff-Com: -0.456D-03-0.143D-02-0.308D-02-0.540D-02 0.114D-01 0.772D-01
 Coeff-Com:  0.231D+00 0.691D+00
 Coeff:     -0.333D-06 0.521D-06 0.187D-05-0.157D-05-0.879D-05-0.402D-04
 Coeff:     -0.456D-03-0.143D-02-0.308D-02-0.540D-02 0.114D-01 0.772D-01
 Coeff:      0.231D+00 0.691D+00
 Gap=     0.207 Goal=   None    Shift=    0.000
 RMSDP=2.16D-08 MaxDP=2.44D-06 DE=-1.09D-10 OVMax= 3.43D-07

 Cycle  15  Pass 1  IDiag  1:
 RMSU=  1.49D-08    CP:  7.90D-01  9.72D-01  3.90D-01  5.99D-01  6.97D-01
                    CP:  7.70D-01  7.20D-01  8.45D-01  9.13D-01  7.42D-01
                    CP:  8.79D-01  9.17D-01  8.62D-01  9.23D-01
 E= -1552.86523022815     Delta-E=       -0.000000000397 Rises=F Damp=F
 DIIS: error= 1.64D-08 at cycle  15 NSaved=  15.
 NSaved=15 IEnMin=15 EnMin= -1552.86523022815     IErMin=15 ErrMin= 1.64D-08
 ErrMax= 1.64D-08  0.00D+00 EMaxC= 1.00D-01 BMatC= 5.60D-13 BMatP= 4.41D-12
 IDIUse=1 WtCom= 1.00D+00 WtEn= 0.00D+00
 Coeff-Com: -0.219D-06 0.446D-06 0.558D-06 0.143D-05 0.213D-05-0.574D-05
 Coeff-Com: -0.133D-03-0.489D-03-0.135D-02-0.304D-02-0.162D-04 0.114D-01
 Coeff-Com:  0.821D-01 0.353D+00 0.558D+00
 Coeff:     -0.219D-06 0.446D-06 0.558D-06 0.143D-05 0.213D-05-0.574D-05
 Coeff:     -0.133D-03-0.489D-03-0.135D-02-0.304D-02-0.162D-04 0.114D-01
 Coeff:      0.821D-01 0.353D+00 0.558D+00
 Gap=     0.207 Goal=   None    Shift=    0.000
 RMSDP=2.01D-08 MaxDP=6.61D-06 DE=-3.97D-10 OVMax= 1.45D-07

 Cycle  16  Pass 1  IDiag  1:
 RMSU=  1.28D-08    CP:  7.90D-01  9.72D-01  3.90D-01  5.99D-01  6.97D-01
                    CP:  7.70D-01  7.20D-01  8.45D-01  9.13D-01  7.43D-01
                    CP:  8.80D-01  9.19D-01  8.80D-01  9.44D-01  8.64D-01
 E= -1552.86523022783     Delta-E=        0.000000000319 Rises=F Damp=F
 DIIS: error= 4.49D-09 at cycle  16 NSaved=  16.
 NSaved=16 IEnMin=15 EnMin= -1552.86523022815     IErMin=16 ErrMin= 4.49D-09
 ErrMax= 4.49D-09  0.00D+00 EMaxC= 1.00D-01 BMatC= 4.07D-14 BMatP= 5.60D-13
 IDIUse=1 WtCom= 1.00D+00 WtEn= 0.00D+00
 Coeff-Com: -0.929D-07 0.211D-06 0.102D-06 0.744D-06 0.124D-05 0.173D-06
 Coeff-Com: -0.217D-04-0.912D-04-0.328D-03-0.858D-03-0.717D-03-0.179D-02
 Coeff-Com:  0.193D-01 0.102D+00 0.257D+00 0.626D+00
 Coeff:     -0.929D-07 0.211D-06 0.102D-06 0.744D-06 0.124D-05 0.173D-06
 Coeff:     -0.217D-04-0.912D-04-0.328D-03-0.858D-03-0.717D-03-0.179D-02
 Coeff:      0.193D-01 0.102D+00 0.257D+00 0.626D+00
 Gap=     0.207 Goal=   None    Shift=    0.000
 RMSDP=1.10D-08 MaxDP=1.44D-06 DE= 3.19D-10 OVMax= 5.85D-08

 Cycle  17  Pass 1  IDiag  1:
 RMSU=  9.72D-09    CP:  7.90D-01  9.72D-01  3.90D-01  5.99D-01  6.97D-01
                    CP:  7.70D-01  7.20D-01  8.45D-01  9.12D-01  7.43D-01
                    CP:  8.81D-01  9.20D-01  8.92D-01  9.41D-01  1.02D+00
                    CP:  1.25D+00
 E= -1552.86523022766     Delta-E=        0.000000000176 Rises=F Damp=F
 DIIS: error= 2.17D-09 at cycle  17 NSaved=  17.
 NSaved=17 IEnMin=15 EnMin= -1552.86523022815     IErMin=17 ErrMin= 2.17D-09
 ErrMax= 2.17D-09  0.00D+00 EMaxC= 1.00D-01 BMatC= 8.67D-15 BMatP= 4.07D-14
 IDIUse=1 WtCom= 1.00D+00 WtEn= 0.00D+00
 Coeff-Com: -0.354D-07 0.841D-07 0.480D-08 0.246D-06 0.324D-06 0.340D-06
 Coeff-Com:  0.137D-05 0.229D-05-0.367D-04-0.137D-03-0.346D-03-0.238D-02
 Coeff-Com:  0.165D-02 0.156D-01 0.782D-01 0.362D+00 0.546D+00
 Coeff:     -0.354D-07 0.841D-07 0.480D-08 0.246D-06 0.324D-06 0.340D-06
 Coeff:      0.137D-05 0.229D-05-0.367D-04-0.137D-03-0.346D-03-0.238D-02
 Coeff:      0.165D-02 0.156D-01 0.782D-01 0.362D+00 0.546D+00
 Gap=     0.207 Goal=   None    Shift=    0.000
 RMSDP=1.11D-08 MaxDP=1.74D-06 DE= 1.76D-10 OVMax= 2.69D-08

 Cycle  18  Pass 1  IDiag  1:
 RMSU=  8.30D-09    CP:  7.90D-01  9.72D-01  3.90D-01  5.99D-01  6.97D-01
                    CP:  7.70D-01  7.20D-01  8.45D-01  9.12D-01  7.43D-01
                    CP:  8.81D-01  9.21D-01  8.92D-01  9.57D-01  1.13D+00
                    CP:  1.71D+00  1.12D+00
 E= -1552.86523022773     Delta-E=       -0.000000000077 Rises=F Damp=F
 DIIS: error= 2.03D-09 at cycle  18 NSaved=  18.
 NSaved=18 IEnMin=15 EnMin= -1552.86523022815     IErMin=18 ErrMin= 2.03D-09
 ErrMax= 2.03D-09  0.00D+00 EMaxC= 1.00D-01 BMatC= 1.42D-15 BMatP= 8.67D-15
 IDIUse=1 WtCom= 1.00D+00 WtEn= 0.00D+00
 Large coefficients: NSaved= 18 BigCof=    0.00 CofMax=   10.00 Det=-2.08D-15
 Inversion failed.  Reducing to 17 matrices.
 Large coefficients: NSaved= 17 BigCof=    0.00 CofMax=   10.00 Det=-6.88D-15
 Inversion failed.  Reducing to 16 matrices.
 Large coefficients: NSaved= 16 BigCof=    0.00 CofMax=   10.00 Det=-7.22D-15
 Inversion failed.  Reducing to 15 matrices.
 Coeff-Com:  0.149D-06 0.372D-06 0.474D-06-0.711D-06-0.299D-05-0.243D-04
 Coeff-Com: -0.606D-04-0.629D-04-0.730D-03 0.728D-03 0.348D-02 0.249D-01
 Coeff-Com:  0.155D+00 0.315D+00 0.502D+00
 Coeff:      0.149D-06 0.372D-06 0.474D-06-0.711D-06-0.299D-05-0.243D-04
 Coeff:     -0.606D-04-0.629D-04-0.730D-03 0.728D-03 0.348D-02 0.249D-01
 Coeff:      0.155D+00 0.315D+00 0.502D+00
 Gap=     0.207 Goal=   None    Shift=    0.000
 RMSDP=1.45D-08 MaxDP=2.76D-06 DE=-7.73D-11 OVMax= 6.33D-09

 Cycle  19  Pass 1  IDiag  1:
 RMSU=  5.60D-09    CP:  7.90D-01  9.72D-01  3.90D-01  5.99D-01  6.97D-01
                    CP:  7.70D-01  7.20D-01  8.45D-01  9.12D-01  7.42D-01
                    CP:  8.82D-01  9.20D-01  8.93D-01  9.75D-01  1.26D+00
                    CP:  2.28D+00  2.04D+00  1.51D+00
 E= -1552.86523022797     Delta-E=       -0.000000000231 Rises=F Damp=F
 DIIS: error= 2.79D-09 at cycle  19 NSaved=  16.
 NSaved=16 IEnMin=12 EnMin= -1552.86523022815     IErMin=15 ErrMin= 2.03D-09
[...]
 00000003,-0.00000005,-0.00000015,-0.00000009,-0.00000047,0.00000019,-0
 .00000061,-0.00000008,0.00000011,0.00006389,0.00003258,0.00001036,0.00
 001499,-0.00001912,-0.00000376,0.00000212,0.00000374,0.00001354,-0.000
 00499,0.00000447,-0.00001579,-0.00004995,-0.00019078,0.00006072,-0.000
 00143,0.00000073,-0.00000760,0.00000219,0.00000354,0.00000152,-0.00000
 002,-0.00000156,0.,-0.00000144,-0.00000132,0.00000167,-0.00000098,-0.0
 0000029,0.00000029,0.00000108,0.00000171,-0.00000004,0.00000004,-0.000
 00056,-0.00000185,-0.00000052,-0.00000026,0.00000049,-0.00000028,-0.00
 000027,-0.00000018,0.00000070,0.00000104,0.00000079,-0.00000028,-0.000
 00133,0.00000013,0.00024810,0.00028817,0.00009268,-0.00069347,0.000273
 37,0.00006871,0.00147305,0.00091578,0.00016494,-0.00056931,0.00459181,
 0.00173169,0.00044964,-0.00044736,0.00048670,-0.00003463,-0.00016870,0
 .00011650,-0.00004626,0.00001800,0.00000978,-0.00006660,-0.00003413,-0
 .00001243,-0.02423660,-0.12991718,-0.14681352,0.00000275,-0.00000006,0
 .00000027,-0.00000030,0.00000020,0.00000005,0.00000004,-0.00000011,-0.
 00000008,0.00000002,0.00000043,0.00000019,0.00000026,-0.00000012,0.000
 00041,0.00000036,-0.00000004,0.00000017,0.00000014,0.00000015,0.,0.000
 00010,0.00000036,0.00000008,-0.00000016,0.00000027,-0.00000026,0.00000
 006,0.,-0.00000027,0.00014921,-0.00040432,0.00017863,0.00012440,0.0001
 2940,0.00033278,0.00000725,0.00000564,0.00000361,-0.00000065,-0.000007
 95,-0.00001109,-0.00001445,-0.00001135,-0.00002088,-0.00001524,0.00000
 337,0.00002137,-0.00001289,-0.00000109,0.00002769,0.00001037,-0.000003
 70,-0.00000715,0.02617809,0.14228814,0.15436773,-0.00007614,0.00008568
 ,-0.00002975,0.00007362,-0.00005114,0.00004183,-0.00000300,-0.00000217
 ,-0.00002870,-0.00001353,0.00000886,-0.00000243,0.00000115,0.00000243,
 0.00000212,-0.00000717,0.00000536,0.00000325,0.00003439,-0.00010526,0.
 00003997,-0.00000213,0.00000131,0.00001875,-0.00000018,0.00000357,0.00
 000080,0.00000061,0.00000128,0.00000195,-0.00000433,0.00002951,-0.0000
 2567,-0.00014457,-0.00019361,-0.00004136,-0.00001194,0.00003148,-0.000
 00161,-0.00000278,0.00000986,0.00000068,0.00000162,-0.00000062,-0.0000
 0251,0.00000352,0.00000174,0.00000420,0.00000197,0.00000042,-0.0000008
 7,-0.00002854,0.00008568,-0.00001081,-0.00003729,0.00002895,-0.0000294
 8,0.00008575,-0.00009299,0.00003160,-0.00000609,-0.00000287,0.00000590
 ,0.00000226,-0.00000139,0.00000341,0.00000506,-0.00000055,-0.00000079,
 0.00000418,-0.00000381,-0.00000238,-0.00008648,-0.00021920,0.00003116,
 -0.00009593,0.00001346,0.00000950,-0.00019324,-0.00006047,-0.00000022,
 0.00001369,0.00014144,0.00000131,0.00005416,0.00016674,-0.00004559,0.0
 0005530,-0.00000762,0.00002579,-0.00005013,-0.00003007,-0.00001640,0.0
 0001477,0.00001240,0.00000866,0.00003279,0.00006849,-0.00002150,-0.000
 00263,-0.00000031,0.00000377,0.00000514,-0.00000468,0.00000083,-0.0000
 0813,0.00000768,0.00001005,0.00000025,-0.00000129,-0.00000018,0.000001
 80,-0.00000535,-0.00000199,-0.00000099,-0.00000039,0.00000098,-0.00000
 554,-0.00000641,-0.00000525,-0.00007040,0.00005089,-0.00004600,0.00012
 319,-0.00143401,0.00019379,0.00011592,-0.00108267,-0.00100127,-0.02359
 651,0.01897702,-0.00649039,-0.00012319,-0.00030727,0.00152228,0.000063
 83,-0.00136736,0.00057511,-0.00006476,0.00006710,0.00005577,-0.0000523
 2,0.00003835,-0.00006887,-0.16310019,0.12944283,-0.04281228,-0.0000247
 8,-0.00000335,-0.00000022,-0.00000525,0.00000154,-0.00000272,-0.000010
 69,-0.00000272,-0.00000156,-0.00001376,-0.00001420,0.00000769,-0.00000
 145,-0.00000313,-0.00000284,0.00000067,0.00000082,0.00000110,-0.000000
 55,-0.00000136,-0.00000137,0.00000022,-0.00000140,-0.00000045,0.000000
 98,-0.00000219,-0.00000012,-0.00000021,0.00000277,-0.00000328,-0.00023
 497,0.00068353,0.00006058,-0.00025766,0.00056121,-0.00037100,0.0000114
 1,0.00001147,-0.00003460,-0.00002163,-0.00003456,-0.00001841,-0.000043
 53,-0.00003193,-0.00003848,-0.00003875,-0.00000417,0.00004977,-0.00002
 452,-0.00002213,0.00002528,0.00001166,0.00002547,0.00002472,0.00335992
 ,-0.00386922,0.00172177,0.18093034,-0.00002300,0.00002952,-0.00000887,
 0.00002644,-0.00001833,0.00000568,0.00000229,0.00000296,-0.00000436,-0
 .00000295,-0.00000037,-0.00000062,-0.00000038,0.00000014,-0.00000075,0
 .00000685,0.00000182,0.00000060,0.00009161,-0.00013856,0.00010482,-0.0
 0000092,0.00000259,0.00003122,-0.00000180,0.00000176,-0.00000089,-0.00
 000082,-0.00000115,0.,-0.00000860,0.00004917,-0.00004987,-0.00003903,0
 .00001084,-0.00004432,-0.00001458,0.00004192,-0.00000647,-0.00000543,0
 .00001454,-0.00000162,0.00000117,-0.00000336,-0.00000188,0.00000229,-0
 .00000231,0.00000139,-0.00000632,-0.00000425,0.00000744,-0.00006721,0.
 00002742,-0.00001552,-0.00003469,0.00000901,-0.00002657,0.00004533,-0.
 00005102,0.00001139,-0.00000216,-0.00000112,0.00000104,0.00000190,0.00
 000045,-0.00000129,0.00000045,-0.00000065,-0.00000040,0.00000150,0.000
 00267,0.00000302,-0.00004930,-0.00005973,0.00000992,-0.00003277,0.0000
 0585,0.00000297,-0.00007007,-0.00002975,0.00000257,-0.00002660,0.00003
 332,0.00000025,0.00014819,0.00001710,-0.00000639,0.00001770,-0.0000035
 9,0.00000913,-0.00001704,-0.00000839,-0.00000610,0.00000455,0.00000197
 ,0.00000376,0.00000998,0.00002371,-0.00000723,-0.00000034,0.00000035,0
 .00000073,-0.00000065,-0.00000290,0.00000132,-0.00000230,0.00000170,0.
 00000273,0.00000104,-0.00000041,-0.00000090,0.00000032,-0.00000096,-0.
 00000069,-0.00000064,-0.00000110,-0.00000061,-0.00000100,0.00000046,0.
 00000016,-0.00037760,-0.00004853,0.00031012,0.00023994,-0.00036441,-0.
 00012234,-0.00006964,0.00029276,-0.00000502,-0.00961320,0.01078112,-0.
 00370180,-0.00095027,-0.00062553,-0.00012800,0.00081582,-0.00041609,-0
 .00001294,-0.00001995,0.00009317,-0.00001817,0.00001157,0.00006928,-0.
 00002047,0.12592801,-0.17824386,0.04506138,-0.00000809,-0.00000129,0.0
 0000029,-0.00000205,0.00000070,-0.00000115,-0.00000325,-0.00000049,-0.
 00000074,-0.00000443,-0.00000462,0.00000249,-0.00000061,-0.00000083,-0
 .00000110,0.00000001,0.00000044,-0.00000023,-0.00000024,-0.00000065,-0
 .00000043,0.00000010,-0.00000062,-0.00000022,0.00000042,-0.00000073,0.
 00000020,0.00000013,0.00000059,-0.00000127,0.00008792,0.00005210,0.000
 08517,-0.00002732,0.00011907,-0.00018077,0.00000117,0.00000345,-0.0000
 0955,0.00000835,0.00000322,0.00002164,-0.00001354,-0.00001508,-0.00000
 657,-0.00000955,-0.00000827,0.00000760,0.00000418,-0.00000603,-0.00001
 398,0.00000083,0.00000263,0.00000801,0.01653469,-0.01774637,0.00710395
 ,-0.13733615,0.19241706,0.00001363,-0.00001233,0.00000619,-0.00001215,
 0.00000269,-0.00001884,0.00000651,0.00000955,0.00001367,0.00000244,-0.
 00000653,-0.00000157,-0.00000128,-0.00000231,-0.00000157,-0.00000122,0
 .00000025,-0.00000104,0.00003757,-0.00005573,0.00002440,0.00000250,-0.
 00000089,0.00000437,-0.00000109,0.00000164,-0.00000120,0.00000055,-0.0
 0000207,-0.00000014,-0.00000766,0.00000175,-0.00000496,-0.00001626,-0.
 00005169,0.00000639,-0.00000399,0.00002208,-0.00000194,-0.00000237,0.0
 0000312,0.00000030,0.00000091,0.00000212,-0.00000187,0.00000022,-0.000
 00176,-0.00000025,0.00000480,-0.00000635,-0.00000599,-0.00002692,0.000
 04381,-0.00002568,-0.00001917,0.00000606,-0.00002694,0.00002942,-0.000
 02942,0.00002868,-0.00000071,-0.00000075,-0.00000204,0.00000074,0.0000
 0136,-0.00000264,-0.00000220,-0.00000165,0.00000020,-0.00000032,0.0000
 0248,0.00000457,0.00001495,0.00002334,0.00000049,0.00001317,0.00000010
 ,-0.00000587,0.00003228,0.00001263,0.00000741,0.00000699,-0.00002123,-
 0.00001731,-0.00006290,0.00001776,0.00001140,-0.00000693,0.00000136,-0
 .00000424,0.00000624,0.00000274,0.00000148,-0.00000189,-0.00000037,-0.
 00000167,-0.00000437,-0.00000964,0.00000596,-0.00000031,-0.00000035,-0
 .00000033,0.00000045,0.00000130,-0.00000081,0.00000147,-0.00000062,-0.
 00000111,-0.00000039,0.00000025,-0.00000011,0.00000003,0.00000025,0.00
 000019,0.00000061,0.00000049,-0.00000031,0.00000061,0.00000025,0.00000
 085,0.00017977,0.00039330,0.00118243,-0.00149889,-0.00020294,-0.000542
 59,0.00182821,0.00098911,-0.00083628,0.00287913,-0.00366850,0.00083057
 ,-0.00142262,-0.00110668,-0.00003913,0.00106234,-0.00003032,-0.0006748
 4,-0.00004603,0.00002056,-0.00000413,0.00003916,-0.00006508,0.00001948
 ,-0.04165635,0.04512545,-0.05872557,0.00000401,0.00000053,-0.00000021,
 0.00000085,-0.00000025,0.00000041,0.00000193,0.00000020,0.00000023,0.0
 0000163,0.00000165,-0.00000120,0.00000028,0.00000035,0.00000053,-0.000
 00024,-0.00000005,-0.00000015,-0.00000015,0.00000017,0.00000028,-0.000
 00018,0.00000004,0.00000021,-0.00000033,0.00000030,0.00000028,0.000000
 05,-0.00000046,0.00000040,0.00010794,-0.00017601,-0.00006689,-0.000147
 12,0.00016739,-0.00003596,0.00000178,0.00000473,0.00000680,-0.00000075
 ,0.00000336,0.00001256,-0.00000429,-0.00000205,-0.00000633,0.00001193,
 0.00000827,-0.00001078,-0.00000477,0.00000785,0.00001868,-0.00000151,-
 0.00000676,0.00000229,0.01395878,-0.01402228,0.00493816,0.04571364,-0.
 04960905,0.06029753,-0.00002378,0.00003126,-0.00000827,0.00001967,-0.0
 0002160,0.00001608,0.00000340,0.00000617,-0.00001014,-0.00000684,0.000
 00107,-0.00000281,-0.00000110,-0.00000065,0.00000130,-0.00000153,0.000
 00078,0.00000044,-0.00000779,0.00000737,-0.00001338,-0.00000163,0.0000
 0020,-0.00000061,0.00000050,-0.00000008,0.00000044,0.00000020,0.000000
 78,0.00000044,0.00000340,-0.00000019,0.00000216,-0.00001306,-0.0000086
 6,-0.00000345,0.00000027,-0.00000064,0.00000073,0.00000101,-0.00000202
 ,0.00000018,-0.00000076,0.00000007,-0.00000029,-0.00000238,0.00000017,
 0.00000062,0.00000055,0.00000022,-0.00000132,0.00001293,-0.00000308,0.
 00000932,0.00000481,0.00000092,0.00000626,-0.00000476,0.00000148,-0.00
 000451,-0.00000245,-0.00000286,0.00000123,0.00000061,-0.00000076,0.000
 00197,0.00000194,-0.00000149,0.00000012,0.00000057,-0.00000111,-0.0000
 0175,-0.00000775,-0.00007754,0.00000832,-0.00003381,-0.00000131,0.0000
 0777,-0.00008331,-0.00001802,0.00000570,0.00000332,0.00005059,-0.00001
 387,0.00005280,-0.00006403,-0.00007490,0.00002184,-0.00000214,0.000009
 30,-0.00001864,-0.00000922,-0.00000660,0.00000632,0.00000348,0.0000038
 1,0.00001240,0.00002750,-0.00000537,-0.00000188,-0.00000059,0.00000190
 ,0.00000236,-0.00000167,0.00000055,-0.00000299,0.00000253,0.00000302,0
 .00000003,-0.00000069,-0.00000026,0.00000062,-0.00000199,-0.00000097,-
 0.00000069,-0.00000021,0.00000083,-0.00000161,-0.00000201,-0.00000168,
 0.00013364,-0.00003037,0.00009264,-0.00069056,0.00082038,0.00106746,-0
 .00454285,-0.00285005,-0.00085628,-0.00675719,-0.00833740,0.03148684,0
 .00127941,0.00124530,0.00116804,0.00001239,0.00038767,0.00002184,0.000
 02789,0.00000437,-0.00002858,-0.00028926,-0.00013460,-0.00009774,-0.05
 138476,-0.01322717,0.03819589,-0.00000931,-0.00000138,-0.00000028,-0.0
 0000268,0.00000101,-0.00000108,-0.00000417,-0.00000095,-0.00000081,-0.
 00000545,-0.00000584,0.00000300,-0.00000058,-0.00000117,-0.00000111,0.
 00000040,0.00000044,0.00000021,-0.00000016,-0.00000059,-0.00000060,0.0
 0000013,-0.00000043,-0.00000016,0.00000029,-0.00000069,-0.00000013,0.0
 0000025,0.00000114,-0.00000170,0.00010211,-0.00022786,0.00001769,0.000
 12770,-0.00045231,-0.00074477,-0.00001239,-0.00001984,-0.00002543,-0.0
 0000159,-0.00000250,-0.00001187,-0.00000144,0.00000154,-0.00000464,-0.
 00006501,0.00000655,0.00007654,-0.00006096,-0.00000649,0.00006645,0.00
 003965,0.00000782,-0.00000574,-0.00052095,0.00219622,-0.00469198,0.003
 45572,0.00484975,-0.02101217,0.05923694,-0.00002187,0.00003229,-0.0000
 0987,0.00001636,-0.00002922,0.00001235,0.00000351,0.00000772,-0.000009
 72,-0.00000214,-0.00000254,-0.00000209,-0.00000202,-0.00000137,0.00000
 132,0.00000080,0.00000018,-0.00000066,0.00001011,0.00000034,0.00000404
 ,0.00000090,-0.00000082,-0.00000257,-0.00000005,0.00000016,-0.00000083
 ,0.00000045,-0.00000215,-0.00000071,-0.00000281,-0.00000190,0.00000433
 ,-0.00000279,0.00002455,0.00001761,-0.00000074,0.00000931,0.00000005,-
 0.00000106,-0.00000104,-0.00000035,0.00000029,0.00000318,-0.00000128,-
 0.00000250,-0.00000270,0.00000069,0.00000686,-0.00000800,-0.00000615,0
 .00000500,-0.00001031,-0.00000531,0.00000365,-0.00000295,-0.00000199,-
 0.00000983,0.00000756,0.00000481,-0.00000146,-0.00000096,0.00000025,0.
 00000110,-0.00000011,0.00000075,0.00000032,-0.00000227,0.00000045,-0.0
 0000009,0.00000101,0.00000084,-0.00005668,-0.00008326,0.00001497,-0.00
 003647,0.00001731,0.00000022,-0.00007111,-0.00002639,0.00000381,-0.000
 01320,0.00003376,-0.00000214,0.00011956,0.00006091,-0.00005369,0.00002
 095,-0.00000261,0.00001090,-0.00001940,-0.00001240,-0.00000735,0.00000
 596,0.00000493,0.00000369,0.00001145,0.00002683,-0.00000722,-0.0000011
 8,-0.00000014,0.00000175,0.00000193,-0.00000175,0.00000071,-0.00000251
 ,0.00000293,0.00000320,0.00000023,-0.00000032,-0.00000060,0.00000067,-
 0.00000242,-0.00000069,0.00000008,0.00000025,-0.00000012,-0.00000251,-
 0.00000291,-0.00000055,-0.00017139,-0.00027991,-0.00034155,0.00047913,
 0.00086595,0.00037618,-0.00213335,-0.00023027,-0.00036229,0.00038185,-
 0.00376271,0.01001769,0.00000079,0.00073933,0.00052022,-0.00000755,-0.
 00002585,0.00021009,0.00005107,-0.00002504,-0.00000112,-0.00003280,-0.
 00014979,-0.00000710,-0.01452746,-0.06812798,0.07098345,-0.00000932,-0
 .00000125,-0.00000020,-0.00000196,0.00000068,-0.00000081,-0.00000421,-
 0.00000122,-0.00000067,-0.00000528,-0.00000548,0.00000268,-0.00000071,
 -0.00000129,-0.00000123,0.00000019,0.00000049,0.00000026,-0.00000047,-
 0.00000065,-0.00000052,0.,-0.00000073,-0.00000009,0.00000021,-0.000000
 77,0.00000013,0.00000041,0.00000106,-0.00000171,0.00003465,-0.00004966
 ,0.00025021,-0.00015614,-0.00022762,-0.00048790,-0.00000917,-0.0000055
 1,-0.00002531,-0.00000494,-0.00000067,-0.00000633,0.00000803,0.0000074
 2,0.00000438,-0.00001152,0.00000197,-0.00000791,-0.00003283,0.00000413
 ,0.00003603,0.00000976,0.00000288,0.00000141,0.00457913,0.00888811,-0.
 02442582,-0.00426132,-0.00630350,0.02221345,0.01586544,0.06865326,0.00
 001303,-0.00002053,0.00000577,-0.00000746,0.00002015,-0.00000722,-0.00
 000663,-0.00001104,0.00000299,0.00000224,0.00000240,0.00000340,0.00000
 303,0.00000254,-0.00000167,-0.00000065,0.00000128,0.00000052,0.0000032
 7,-0.00001290,0.00000849,-0.00000197,0.00000207,0.00000362,0.00000048,
 0.00000071,0.00000053,-0.00000015,0.00000077,0.00000089,0.00000204,0.0
 0001032,-0.00000711,0.00000676,-0.00001559,-0.00001484,-0.00000202,-0.
 00000449,-0.00000112,0.00000011,0.00000273,0.00000073,-0.00000015,-0.0
 0000029,0.00000009,-0.00000120,-0.00000061,-0.00000005,-0.00000312,0.0
 0000082,0.00000218,-0.00001397,0.00002082,0.00000381,-0.00000766,0.000
 00758,-0.00000126,0.00001665,-0.00002263,-0.00000187,0.00000124,0.0000
 0212,0.00000043,-0.00000110,-0.00000056,-0.00000037,0.,0.00000325,-0.0
 0000025,0.00000107,-0.00000114,-0.00000089,-0.00003234,0.00004060,0.00
 001104,0.00001494,0.00001473,-0.00000956,0.00006961,0.00001750,0.00000
 345,0.00000480,-0.00004926,-0.00000471,-0.00002016,0.00018784,-0.00000
 950,-0.00001567,-0.00000127,-0.00000816,0.00001227,0.00000643,0.000004
 78,-0.00000528,-0.00000189,-0.00000420,-0.00000886,-0.00002290,0.00000
 674,0.00000243,0.00000050,-0.00000211,-0.00000425,-0.00000059,-0.00000
 043,0.00000394,-0.00000127,-0.00000092,0.00000107,0.00000050,-0.000000
 32,-0.00000097,0.00000198,0.00000112,-0.00000014,-0.00000107,-0.000001
 71,0.00000186,0.00000377,0.00000170,-0.00014735,-0.00003661,0.00042045
 ,-0.00028680,-0.00028968,-0.00022567,0.00082057,0.00103206,0.00053269,
 0.00017638,-0.00058704,-0.00236695,-0.00172276,-0.00128542,0.00058323,
 0.00069484,-0.00026487,0.00013138,0.00004476,0.00004780,-0.00003989,0.
 00008670,0.00006705,0.00003172,0.04158912,0.07183894,-0.29563305,0.000
 00665,0.00000100,0.00000026,0.00000221,-0.00000071,0.00000070,0.000003
 75,0.00000104,0.00000091,0.00000411,0.00000449,-0.00000249,0.00000043,
 0.00000140,0.00000070,-0.00000052,-0.00000042,-0.00000045,0.00000034,0
 .00000047,0.00000046,-0.00000012,0.00000034,-0.00000002,-0.00000006,0.
 00000031,0.00000027,-0.00000023,-0.00000098,0.00000144,-0.00016594,0.0
 0005493,0.00024415,-0.00003648,0.00065182,0.00027624,-0.00000622,0.000
 00164,0.00000970,0.00002009,0.00002028,0.00003356,0.00001710,0.0000083
 3,0.00002202,0.00002830,-0.00000292,-0.00003136,0.00002428,0.00000111,
 -0.00003804,-0.00001632,-0.00000618,0.00000588,0.00251662,0.00625877,-
 0.01573265,0.00096331,0.00121813,-0.00635493,-0.04464383,-0.07891846,0
 .31814571\\0.00000180,-0.00000144,0.00000148,0.00000268,0.00000209,0.0
 0000035,-0.00000178,-0.00000113,-0.00000038,0.00000158,-0.00000078,-0.
 00000037,0.00000043,0.,-0.00000019,-0.00000165,-0.00000266,-0.00000234
 ,-0.00000067,-0.00000187,0.00000027,-0.00000178,-0.00000219,-0.0000023
 6,-0.00000218,-0.00000262,-0.00000231,-0.00000190,-0.00000303,-0.00000
 251,-0.00000196,-0.00000153,-0.00000225,-0.00000039,-0.00000212,-0.000
 00085,-0.00000224,-0.00000120,-0.00000349,-0.00000268,-0.00000204,-0.0
 0000170,-0.00000226,-0.00000155,-0.00000151,-0.00000141,-0.00000091,-0
 .00000119,-0.00000138,-0.00000213,-0.00000176,0.00000043,-0.00000144,-
 0.00000273,-0.00000059,-0.00000336,-0.00000304,-0.00000079,-0.00000278
 ,-0.00000180,0.00000046,-0.00000161,-0.00000063,0.00000067,-0.00000163
 ,-0.00000116,-0.00000027,-0.00000116,-0.00000111,0.00000067,-0.0000014
 1,-0.00000040,0.00000505,0.00000134,0.00000125,-0.00000055,0.00000105,
 0.00000183,0.00000220,0.00000490,0.00000301,-0.00000264,-0.00000588,-0
 .00000041,-0.00000135,0.00000569,-0.00000078,0.00000183,0.00000247,0.0
 0000159,-0.00000039,0.00000308,0.00000324,0.00000023,0.00000322,0.0000
 0270,0.00000159,0.00000226,0.00000063,0.00000026,0.00000297,0.00000055
 ,-0.00000138,0.00000293,0.00000226,-0.00000130,0.00000121,0.00000059,-
 0.00000196,0.00000149,0.00000146,-0.00000280,0.00000176,0.00000050,-0.
 00000153,0.00000171,0.00000065,-0.00000121,0.00000076,0.00000172,0.000
 00099,-0.00000118,0.00000006,0.00000201,-0.00000042,0.00000030,0.00000
 243,-0.00000132,-0.00000037,0.00000186,-0.00000106,-0.00000057,0.00000
 004,-0.00000022,-0.00000065,0.00000103,0.00000005,-0.00000002,-0.00000
 034,0.00000040,0.00000011,0.00000273,0.00000012,0.00000038,0.00000179,
 -0.00000232,-0.00000120,0.00000119,0.00000276,0.00000242,0.00000117,0.
 00000242,0.00000235,0.00000001,0.00000327,0.00000197,0.00000043,0.0000
 0182,0.00000200,-0.00000161,0.00000288,0.00000290,-0.00000195,0.000002
 35,0.00000207,-0.00000266,0.00000262,0.00000151,-0.00000304,0.00000164
 ,0.00000081,-0.00000192,0.00000076,0.00000040,-0.00000008,0.00000111,0
 .00000029,0.00000265,-0.00000147,-0.00000061,0.00000030,-0.00000093,-0
 .00000080,-0.00000046,-0.00000016,-0.00000004,-0.00000080,0.00000035,0
 .00000040,0.00000016,0.00000080,0.00000055,0.00000271,-0.00000011,0.00
 000034,0.00000227,0.00000011,0.00000076,0.00000293,-0.00000035,0.00000
 006,0.00000242,-0.00000204,-0.00000127,0.00000139,-0.00000235,-0.00000
 160,0.00000152,-0.00000200,-0.00000135\\\@


          EVOLUTION
 IN THE BEGINNING GOD MADE MAN.
 HE WORKED THE DIRT WITH HIS HANDS.
 THEN GOD DECIDED TO GIVE MAN SCIENCE,
 MAN SHOULD BE USEFUL (LIKE AN APPLIANCE.)
 BUT SOON MAN'S KNOWLEDGE GREW TOO GREAT,
 TO THE HEADING SCIENCE HE COULDN'T RELATE
 SO GOD SAID "LETS HAVE DIFFERENT FIELDS,
 WE'LL DIVIDE THEM UP, SEE WHAT IT YIELDS."
 ENTER PHYSICS, CHEMISTRY, BIO
 THEY SPRANG UP AROUND THE NILE.
 BUT CHEMISTRY SURPASSED THE REST
 FAR AND AWAY IT WAS THE BEST.
 EXPERIMENT WAS GOD'S DECREE
 EXPERIMENT DID CHEMISTS WITH LOTS OF GLEE
 BUT SOON THEIR TESTS BEGAN TO BOG,
 THEY FOUND THEMSELVES DEEP IN A FOG.
 "GIVE US SOME HELP" THEY CRIED TO GOD.
 GOD LOOKED AROUND, THEN GAVE THE NOD.
 ENTER EINSTEIN, HEISENBERG, BOHR,
 REACTION PATHS WERE CLEAR ONCE MORE.
 WITH THEORISTS GOD SEND DIRECTION
 AND THEN HE STOPPED, HE'D MADE PERFECTION.
          -- THOMAS A. HOLME, 1981
 Job cpu time:      13 days 19 hours 54 minutes 10.0 seconds.
 File lengths (MBytes):  RWF=  14455 Int=      0 D2E=      0 Chk=     89 Scr=      1
 Normal termination of Gaussian 09 at Fri Feb 18 15:56:21 2022.
