 Entering Gaussian System, Link 0=g09
 Input=reag_NHC13_et_new2.gjf
 Output=reag_NHC13_et_new2.log
 Initial command:
 /usr/local/gqt/g09/l1.exe "/usr/local/gqt/lixogaussian/Gau-3166.inp" -scrdir="/usr/local/gqt/lixogaussian/"
 Entering Link 1 = /usr/local/gqt/g09/l1.exe PID=      3168.
  
 Copyright (c) 1988,1990,1992,1993,1995,1998,2003,2009,2013,
            Gaussian, Inc.  All Rights Reserved.
  
 This is part of the Gaussian(R) 09 program.  It is based on
 the Gaussian(R) 03 system (copyright 2003, Gaussian, Inc.),
 the Gaussian(R) 98 system (copyright 1998, Gaussian, Inc.),
 the Gaussian(R) 94 system (copyright 1995, Gaussian, Inc.),
 the Gaussian 92(TM) system (copyright 1992, Gaussian, Inc.),
 the Gaussian 90(TM) system (copyright 1990, Gaussian, Inc.),
 the Gaussian 88(TM) system (copyright 1988, Gaussian, Inc.),
 the Gaussian 86(TM) system (copyright 1986, Carnegie Mellon
 University), and the Gaussian 82(TM) system (copyright 1983,
 Carnegie Mellon University). Gaussian is a federally registered
 trademark of Gaussian, Inc.
  
 This software contains proprietary and confidential information,
 including trade secrets, belonging to Gaussian, Inc.
  
 This software is provided under written license and may be
 used, copied, transmitted, or stored only in accord with that
 written license.
  
 The following legend is applicable only to US Government
 contracts under FAR:
  
                    RESTRICTED RIGHTS LEGEND
  
 Use, reproduction and disclosure by the US Government is
 subject to restrictions as set forth in subparagraphs (a)
 and (c) of the Commercial Computer Software - Restricted
 Rights clause in FAR 52.227-19.
  
 Gaussian, Inc.
 340 Quinnipiac St., Bldg. 40, Wallingford CT 06492
  
  
 ---------------------------------------------------------------
 Warning -- This program may not be used in any manner that
 competes with the business of Gaussian, Inc. or will provide
 assistance to any competitor of Gaussian, Inc.  The licensee
 of this program is prohibited from giving any competitor of
 Gaussian, Inc. access to this program.  By using this program,
 the user acknowledges that Gaussian, Inc. is engaged in the
 business of creating and licensing software in the field of
 computational chemistry and represents and warrants to the
 licensee that it is not a competitor of Gaussian, Inc. and that
 it will not use this program in any manner prohibited above.
 ---------------------------------------------------------------
  

 Cite this work as:
 Gaussian 09, Revision D.01,
 M. J. Frisch, G. W. Trucks, H. B. Schlegel, G. E. Scuseria, 
 M. A. Robb, J. R. Cheeseman, G. Scalmani, V. Barone, B. Mennucci, 
 G. A. Petersson, H. Nakatsuji, M. Caricato, X. Li, H. P. Hratchian, 
 A. F. Izmaylov, J. Bloino, G. Zheng, J. L. Sonnenberg, M. Hada, 
 M. Ehara, K. Toyota, R. Fukuda, J. Hasegawa, M. Ishida, T. Nakajima, 
 Y. Honda, O. Kitao, H. Nakai, T. Vreven, J. A. Montgomery, Jr., 
 J. E. Peralta, F. Ogliaro, M. Bearpark, J. J. Heyd, E. Brothers, 
 K. N. Kudin, V. N. Staroverov, T. Keith, R. Kobayashi, J. Normand, 
 K. Raghavachari, A. Rendell, J. C. Burant, S. S. Iyengar, J. Tomasi, 
 M. Cossi, N. Rega, J. M. Millam, M. Klene, J. E. Knox, J. B. Cross, 
 V. Bakken, C. Adamo, J. Jaramillo, R. Gomperts, R. E. Stratmann, 
 O. Yazyev, A. J. Austin, R. Cammi, C. Pomelli, J. W. Ochterski, 
 R. L. Martin, K. Morokuma, V. G. Zakrzewski, G. A. Voth, 
 P. Salvador, J. J. Dannenberg, S. Dapprich, A. D. Daniels, 
 O. Farkas, J. B. Foresman, J. V. Ortiz, J. Cioslowski, 
 and D. J. Fox, Gaussian, Inc., Wallingford CT, 2013.
 
 ******************************************
 Gaussian 09:  ES64L-G09RevD.01 24-Apr-2013
                17-Nov-2021 
 ******************************************
 %nprocshared=16
 Will use up to   16 processors via shared memory.
 %mem=50GB
 %chk=reag_NHC13_et_new2.chk
 ------------------------------------------------------------
 #p opt freq n12sx/6-311+g(d,p) scrf=(iefpcm,solvent=ethanol)
 ------------------------------------------------------------
 1/14=-1,18=20,19=15,26=3,38=1/1,3;
 2/9=110,12=2,17=6,18=5,40=1/2;
 3/5=4,6=6,7=111,11=2,16=1,25=1,30=1,70=2201,71=1,72=4,74=-69/1,2,3;
 4//1;
 5/5=2,38=5,53=4/2;
 6/7=2,8=2,9=2,10=2,28=1/1;
 7//1,2,3,16;
 1/14=-1,18=20,19=15,26=3/3(2);
 2/9=110/2;
 99//99;
 2/9=110/2;
 3/5=4,6=6,7=111,11=2,16=1,25=1,30=1,70=2205,71=1,72=4,74=-69/1,2,3;
 4/5=5,16=3,69=1/1;
 5/5=2,38=5,53=4/2;
 7//1,2,3,16;
 1/14=-1,18=20,19=15,26=3/3(-5);
 2/9=110/2;
 6/7=2,8=2,9=2,10=2,19=2,28=1/1;
 99/9=1/99;
 Leave Link    1 at Wed Nov 17 23:46:41 2021, MaxMem=  6710886400 cpu:         0.7
 (Enter /usr/local/gqt/g09/l101.exe)
 -----
 TITLE
 -----
 Symbolic Z-matrix:
 Charge =  0 Multiplicity = 1
 1                     0.3313    0.37891  -0.92689 
 8                     1.17329  -0.05789  -1.19952 
 6                     0.87546  -1.25769  -1.87518 
 1                     0.31776  -1.93673  -1.2214 
 1                     0.23942  -1.05983  -2.7444 
 6                     6.00103   1.18757  -0.21406 
 6                     3.79864  -0.18112   1.04075 
 6                     4.78905   1.94717   0.29789 
 1                     6.33186   1.53433  -1.18935 
 1                     6.84471   1.33397   0.46387 
 6                     4.20171   1.20126   1.48021 
 1                     3.52219  -0.8138    1.87818 
 1                     2.9678   -0.14249   0.33775 
 1                     5.07879   2.95899   0.57078 
 1                     4.03971   2.03     -0.48938 
 1                     3.3183    1.70392   1.86911 
 1                     4.92778   1.14639   2.29254 
 8                     4.86749  -0.89836   0.38072 
 8                     6.59773  -0.99465  -0.94484 
 6                     5.83747  -0.30557  -0.30714 
 6                     2.15676  -1.91901  -2.3238 
 1                     1.94606  -2.86004  -2.82946 
 1                     2.70093  -1.27572  -3.01359 
 1                     2.80228  -2.12507  -1.47161 
 7                    -3.48792   1.18577   0.38144 
 6                    -3.14249   2.36765  -0.00134 
 7                    -1.8633    2.37191  -0.4716 
 6                    -1.32418   1.13538  -0.41149 
 7                    -2.3496    0.44368   0.11809 
 6                    -3.75166   3.71654  -0.09652 
 6                    -2.50694   4.60104  -0.32792 
 6                    -1.4394    3.68012  -0.94411 
 6                    -2.33699  -0.9375    0.42109 
 6                    -2.75649  -1.85995  -0.5394 
 6                    -2.73964  -3.21982  -0.24093 
 6                    -2.30901  -3.62882   1.00978 
 6                    -1.89416  -2.72659   1.97438 
 6                    -1.90945  -1.36601   1.67949 
 8                    -1.52906  -0.40578   2.53724 
 6                    -1.07742  -0.77207   3.82676 
 8                    -3.15659  -1.35209  -1.71565 
 6                    -3.5866   -2.23243  -2.73582 
 1                    -4.43462   3.7523   -0.94506 
 1                    -4.31048   3.99341   0.79165 
 1                    -2.14983   4.97615   0.62811 
 1                    -2.71829   5.45394  -0.96377 
 1                    -1.4574    3.69742  -2.03167 
 1                    -0.43424   3.90657  -0.60606 
 1                    -3.0555   -3.949    -0.96726 
 1                    -2.29642  -4.6838    1.23986 
 1                    -1.5664   -3.07918   2.9372 
 1                    -0.82923   0.15351   4.33225 
 1                    -1.85737  -1.28978   4.38317 
 1                    -0.19025  -1.40074   3.76731 
 1                    -3.85424  -1.60722  -3.57926 
 1                    -2.78837  -2.9126   -3.02879 
 1                    -4.4577   -2.80396  -2.41882 
 
 Add virtual bond connecting atoms C28        and H1         Dist= 3.57D+00.
 Add virtual bond connecting atoms H13        and O2         Dist= 4.47D+00.
 NAtoms=     57 NQM=       57 NQMF=       0 NMMI=      0 NMMIF=      0
                NMic=       0 NMicF=      0.
                    Isotopes and Nuclear Properties:
 (Nuclear quadrupole moments (NQMom) in fm**2, nuclear magnetic moments (NMagM)
  in nuclear magnetons)

  Atom         1           2           3           4           5           6           7           8           9          10
 IAtWgt=           1          16          12           1           1          12          12          12           1           1
 AtmWgt=   1.0078250  15.9949146  12.0000000   1.0078250   1.0078250  12.0000000  12.0000000  12.0000000   1.0078250   1.0078250
 NucSpn=           1           0           0           1           1           0           0           0           1           1
 AtZEff=   0.0000000   0.0000000   0.0000000   0.0000000   0.0000000   0.0000000   0.0000000   0.0000000   0.0000000   0.0000000
 NQMom=    0.0000000   0.0000000   0.0000000   0.0000000   0.0000000   0.0000000   0.0000000   0.0000000   0.0000000   0.0000000
 NMagM=    2.7928460   0.0000000   0.0000000   2.7928460   2.7928460   0.0000000   0.0000000   0.0000000   2.7928460   2.7928460
 AtZNuc=   1.0000000   8.0000000   6.0000000   1.0000000   1.0000000   6.0000000   6.0000000   6.0000000   1.0000000   1.0000000

  Atom        11          12          13          14          15          16          17          18          19          20
 IAtWgt=          12           1           1           1           1           1           1          16          16          12
 AtmWgt=  12.0000000   1.0078250   1.0078250   1.0078250   1.0078250   1.0078250   1.0078250  15.9949146  15.9949146  12.0000000
 NucSpn=           0           1           1           1           1           1           1           0           0           0
 AtZEff=   0.0000000   0.0000000   0.0000000   0.0000000   0.0000000   0.0000000   0.0000000   0.0000000   0.0000000   0.0000000
 NQMom=    0.0000000   0.0000000   0.0000000   0.0000000   0.0000000   0.0000000   0.0000000   0.0000000   0.0000000   0.0000000
 NMagM=    0.0000000   2.7928460   2.7928460   2.7928460   2.7928460   2.7928460   2.7928460   0.0000000   0.0000000   0.0000000
 AtZNuc=   6.0000000   1.0000000   1.0000000   1.0000000   1.0000000   1.0000000   1.0000000   8.0000000   8.0000000   6.0000000

  Atom        21          22          23          24          25          26          27          28          29          30
 IAtWgt=          12           1           1           1          14          12          14          12          14          12
 AtmWgt=  12.0000000   1.0078250   1.0078250   1.0078250  14.0030740  12.0000000  14.0030740  12.0000000  14.0030740  12.0000000
 NucSpn=           0           1           1           1           2           0           2           0           2           0
 AtZEff=   0.0000000   0.0000000   0.0000000   0.0000000   0.0000000   0.0000000   0.0000000   0.0000000   0.0000000   0.0000000
 NQMom=    0.0000000   0.0000000   0.0000000   0.0000000   2.0440000   0.0000000   2.0440000   0.0000000   2.0440000   0.0000000
 NMagM=    0.0000000   2.7928460   2.7928460   2.7928460   0.4037610   0.0000000   0.4037610   0.0000000   0.4037610   0.0000000
 AtZNuc=   6.0000000   1.0000000   1.0000000   1.0000000   7.0000000   6.0000000   7.0000000   6.0000000   7.0000000   6.0000000

  Atom        31          32          33          34          35          36          37          38          39          40
 IAtWgt=          12          12          12          12          12          12          12          12          16          12
 AtmWgt=  12.0000000  12.0000000  12.0000000  12.0000000  12.0000000  12.0000000  12.0000000  12.0000000  15.9949146  12.0000000
 NucSpn=           0           0           0           0           0           0           0           0           0           0
 AtZEff=   0.0000000   0.0000000   0.0000000   0.0000000   0.0000000   0.0000000   0.0000000   0.0000000   0.0000000   0.0000000
 NQMom=    0.0000000   0.0000000   0.0000000   0.0000000   0.0000000   0.0000000   0.0000000   0.0000000   0.0000000   0.0000000
 NMagM=    0.0000000   0.0000000   0.0000000   0.0000000   0.0000000   0.0000000   0.0000000   0.0000000   0.0000000   0.0000000
 AtZNuc=   6.0000000   6.0000000   6.0000000   6.0000000   6.0000000   6.0000000   6.0000000   6.0000000   8.0000000   6.0000000

  Atom        41          42          43          44          45          46          47          48          49          50
 IAtWgt=          16          12           1           1           1           1           1           1           1           1
 AtmWgt=  15.9949146  12.0000000   1.0078250   1.0078250   1.0078250   1.0078250   1.0078250   1.0078250   1.0078250   1.0078250
 NucSpn=           0           0           1           1           1           1           1           1           1           1
 AtZEff=   0.0000000   0.0000000   0.0000000   0.0000000   0.0000000   0.0000000   0.0000000   0.0000000   0.0000000   0.0000000
 NQMom=    0.0000000   0.0000000   0.0000000   0.0000000   0.0000000   0.0000000   0.0000000   0.0000000   0.0000000   0.0000000
 NMagM=    0.0000000   0.0000000   2.7928460   2.7928460   2.7928460   2.7928460   2.7928460   2.7928460   2.7928460   2.7928460
 AtZNuc=   8.0000000   6.0000000   1.0000000   1.0000000   1.0000000   1.0000000   1.0000000   1.0000000   1.0000000   1.0000000

  Atom        51          52          53          54          55          56          57
 IAtWgt=           1           1           1           1           1           1           1
 AtmWgt=   1.0078250   1.0078250   1.0078250   1.0078250   1.0078250   1.0078250   1.0078250
 NucSpn=           1           1           1           1           1           1           1
 AtZEff=   0.0000000   0.0000000   0.0000000   0.0000000   0.0000000   0.0000000   0.0000000
 NQMom=    0.0000000   0.0000000   0.0000000   0.0000000   0.0000000   0.0000000   0.0000000
 NMagM=    2.7928460   2.7928460   2.7928460   2.7928460   2.7928460   2.7928460   2.7928460
 AtZNuc=   1.0000000   1.0000000   1.0000000   1.0000000   1.0000000   1.0000000   1.0000000
 Leave Link  101 at Wed Nov 17 23:46:41 2021, MaxMem=  6710886400 cpu:         7.2
 (Enter /usr/local/gqt/g09/l103.exe)

 GradGradGradGradGradGradGradGradGradGradGradGradGradGradGradGradGradGrad
 Berny optimization.
 Initialization pass.
                           ----------------------------
                           !    Initial Parameters    !
                           ! (Angstroms and Degrees)  !
 --------------------------                            --------------------------
 ! Name  Definition              Value          Derivative Info.                !
 --------------------------------------------------------------------------------
 ! R1    R(1,2)                  0.9869         estimate D2E/DX2                !
 ! R2    R(1,28)                 1.8917         estimate D2E/DX2                !
 ! R3    R(2,3)                  1.4088         estimate D2E/DX2                !
 ! R4    R(2,13)                 2.3645         estimate D2E/DX2                !
 ! R5    R(3,4)                  1.0952         estimate D2E/DX2                !
 ! R6    R(3,5)                  1.0951         estimate D2E/DX2                !
 ! R7    R(3,21)                 1.5101         estimate D2E/DX2                !
 ! R8    R(6,8)                  1.5192         estimate D2E/DX2                !
 ! R9    R(6,9)                  1.0867         estimate D2E/DX2                !
 ! R10   R(6,10)                 1.0922         estimate D2E/DX2                !
 ! R11   R(6,20)                 1.505          estimate D2E/DX2                !
 ! R12   R(7,11)                 1.5055         estimate D2E/DX2                !
 ! R13   R(7,12)                 1.0854         estimate D2E/DX2                !
 ! R14   R(7,13)                 1.089          estimate D2E/DX2                !
 ! R15   R(7,18)                 1.4466         estimate D2E/DX2                !
 ! R16   R(8,11)                 1.5163         estimate D2E/DX2                !
 ! R17   R(8,14)                 1.0873         estimate D2E/DX2                !
 ! R18   R(8,15)                 1.09           estimate D2E/DX2                !
 ! R19   R(11,16)                1.0883         estimate D2E/DX2                !
 ! R20   R(11,17)                1.0909         estimate D2E/DX2                !
 ! R21   R(18,20)                1.3287         estimate D2E/DX2                !
 ! R22   R(19,20)                1.2081         estimate D2E/DX2                !
 ! R23   R(21,22)                1.0889         estimate D2E/DX2                !
 ! R24   R(21,23)                1.0889         estimate D2E/DX2                !
 ! R25   R(21,24)                1.0887         estimate D2E/DX2                !
 ! R26   R(25,26)                1.2895         estimate D2E/DX2                !
 ! R27   R(25,29)                1.3841         estimate D2E/DX2                !
 ! R28   R(26,27)                1.3629         estimate D2E/DX2                !
 ! R29   R(26,30)                1.4831         estimate D2E/DX2                !
 ! R30   R(27,28)                1.3503         estimate D2E/DX2                !
 ! R31   R(27,32)                1.4541         estimate D2E/DX2                !
 ! R32   R(28,29)                1.3455         estimate D2E/DX2                !
 ! R33   R(29,33)                1.4141         estimate D2E/DX2                !
 ! R34   R(30,31)                1.5444         estimate D2E/DX2                !
 ! R35   R(30,43)                1.0898         estimate D2E/DX2                !
 ! R36   R(30,44)                1.0853         estimate D2E/DX2                !
 ! R37   R(31,32)                1.5386         estimate D2E/DX2                !
 ! R38   R(31,45)                1.0873         estimate D2E/DX2                !
 ! R39   R(31,46)                1.0846         estimate D2E/DX2                !
 ! R40   R(32,47)                1.0878         estimate D2E/DX2                !
 ! R41   R(32,48)                1.0844         estimate D2E/DX2                !
 ! R42   R(33,34)                1.3962         estimate D2E/DX2                !
 ! R43   R(33,38)                1.3964         estimate D2E/DX2                !
 ! R44   R(34,35)                1.3923         estimate D2E/DX2                !
 ! R45   R(34,41)                1.3422         estimate D2E/DX2                !
 ! R46   R(35,36)                1.3846         estimate D2E/DX2                !
 ! R47   R(35,49)                1.0766         estimate D2E/DX2                !
 ! R48   R(36,37)                1.3844         estimate D2E/DX2                !
 ! R49   R(36,50)                1.0798         estimate D2E/DX2                !
 ! R50   R(37,38)                1.3922         estimate D2E/DX2                !
 ! R51   R(37,51)                1.0765         estimate D2E/DX2                !
 ! R52   R(38,39)                1.3426         estimate D2E/DX2                !
 ! R53   R(39,40)                1.4146         estimate D2E/DX2                !
 ! R54   R(40,52)                1.0834         estimate D2E/DX2                !
 ! R55   R(40,53)                1.089          estimate D2E/DX2                !
 ! R56   R(40,54)                1.089          estimate D2E/DX2                !
 ! R57   R(41,42)                1.4144         estimate D2E/DX2                !
 ! R58   R(42,55)                1.0835         estimate D2E/DX2                !
 ! R59   R(42,56)                1.0889         estimate D2E/DX2                !
 ! R60   R(42,57)                1.089          estimate D2E/DX2                !
 ! A1    A(1,2,3)              109.211          estimate D2E/DX2                !
 ! A2    A(1,2,13)             118.9284         estimate D2E/DX2                !
 ! A3    A(3,2,13)             116.2181         estimate D2E/DX2                !
 ! A4    A(2,3,4)              110.449          estimate D2E/DX2                !
 ! A5    A(2,3,5)              110.4616         estimate D2E/DX2                !
 ! A6    A(2,3,21)             109.6374         estimate D2E/DX2                !
 ! A7    A(4,3,5)              106.8626         estimate D2E/DX2                !
 ! A8    A(4,3,21)             109.748          estimate D2E/DX2                !
 ! A9    A(5,3,21)             109.6416         estimate D2E/DX2                !
 ! A10   A(8,6,9)              112.6916         estimate D2E/DX2                !
 ! A11   A(8,6,10)             109.8813         estimate D2E/DX2                !
 ! A12   A(8,6,20)             115.481          estimate D2E/DX2                !
 ! A13   A(9,6,10)             106.2092         estimate D2E/DX2                !
 ! A14   A(9,6,20)             107.108          estimate D2E/DX2                !
 ! A15   A(10,6,20)            104.7933         estimate D2E/DX2                !
 ! A16   A(11,7,12)            112.2236         estimate D2E/DX2                !
 ! A17   A(11,7,13)            111.1074         estimate D2E/DX2                !
 ! A18   A(11,7,18)            112.9945         estimate D2E/DX2                !
 ! A19   A(12,7,13)            108.9305         estimate D2E/DX2                !
 ! A20   A(12,7,18)            104.5498         estimate D2E/DX2                !
 ! A21   A(13,7,18)            106.664          estimate D2E/DX2                !
 ! A22   A(6,8,11)             109.015          estimate D2E/DX2                !
 ! A23   A(6,8,14)             109.7111         estimate D2E/DX2                !
 ! A24   A(6,8,15)             110.0619         estimate D2E/DX2                !
 ! A25   A(11,8,14)            111.4258         estimate D2E/DX2                !
 ! A26   A(11,8,15)            109.5277         estimate D2E/DX2                !
 ! A27   A(14,8,15)            107.082          estimate D2E/DX2                !
 ! A28   A(7,11,8)             109.1343         estimate D2E/DX2                !
 ! A29   A(7,11,16)            108.1253         estimate D2E/DX2                !
 ! A30   A(7,11,17)            110.4489         estimate D2E/DX2                !
 ! A31   A(8,11,16)            111.4604         estimate D2E/DX2                !
 ! A32   A(8,11,17)            110.3378         estimate D2E/DX2                !
 ! A33   A(16,11,17)           107.3023         estimate D2E/DX2                !
 ! A34   A(7,18,20)            123.6706         estimate D2E/DX2                !
 ! A35   A(6,20,18)            119.3382         estimate D2E/DX2                !
 ! A36   A(6,20,19)            122.0166         estimate D2E/DX2                !
 ! A37   A(18,20,19)           118.5684         estimate D2E/DX2                !
 ! A38   A(3,21,22)            110.6248         estimate D2E/DX2                !
 ! A39   A(3,21,23)            110.7015         estimate D2E/DX2                !
 ! A40   A(3,21,24)            110.6966         estimate D2E/DX2                !
 ! A41   A(22,21,23)           108.2448         estimate D2E/DX2                !
 ! A42   A(22,21,24)           108.3402         estimate D2E/DX2                !
 ! A43   A(23,21,24)           108.1404         estimate D2E/DX2                !
 ! A44   A(26,25,29)           102.3931         estimate D2E/DX2                !
 ! A45   A(25,26,27)           110.8991         estimate D2E/DX2                !
 ! A46   A(25,26,30)           137.957          estimate D2E/DX2                !
 ! A47   A(27,26,30)           111.1323         estimate D2E/DX2                !
 ! A48   A(26,27,28)           110.8869         estimate D2E/DX2                !
 ! A49   A(26,27,32)           112.8644         estimate D2E/DX2                !
 ! A50   A(28,27,32)           136.2159         estimate D2E/DX2                !
 ! A51   A(1,28,27)            134.7071         estimate D2E/DX2                !
 ! A52   A(1,28,29)            124.6528         estimate D2E/DX2                !
 ! A53   A(27,28,29)           100.6035         estimate D2E/DX2                !
 ! A54   A(25,29,28)           115.2159         estimate D2E/DX2                !
 ! A55   A(25,29,33)           119.3555         estimate D2E/DX2                !
 ! A56   A(28,29,33)           125.4268         estimate D2E/DX2                !
 ! A57   A(26,30,31)           101.5054         estimate D2E/DX2                !
 ! A58   A(26,30,43)           109.7067         estimate D2E/DX2                !
 ! A59   A(26,30,44)           113.0166         estimate D2E/DX2                !
 ! A60   A(31,30,43)           111.6919         estimate D2E/DX2                !
 ! A61   A(31,30,44)           113.0486         estimate D2E/DX2                !
 ! A62   A(43,30,44)           107.8271         estimate D2E/DX2                !
 ! A63   A(30,31,32)           106.0459         estimate D2E/DX2                !
 ! A64   A(30,31,45)           109.302          estimate D2E/DX2                !
 ! A65   A(30,31,46)           112.4041         estimate D2E/DX2                !
 ! A66   A(32,31,45)           109.3135         estimate D2E/DX2                !
 ! A67   A(32,31,46)           111.782          estimate D2E/DX2                !
 ! A68   A(45,31,46)           107.9491         estimate D2E/DX2                !
 ! A69   A(27,32,31)           101.8925         estimate D2E/DX2                !
 ! A70   A(27,32,47)           109.5329         estimate D2E/DX2                !
 ! A71   A(27,32,48)           110.9038         estimate D2E/DX2                !
 ! A72   A(31,32,47)           112.295          estimate D2E/DX2                !
 ! A73   A(31,32,48)           113.1598         estimate D2E/DX2                !
 ! A74   A(47,32,48)           108.8852         estimate D2E/DX2                !
 ! A75   A(29,33,34)           119.6844         estimate D2E/DX2                !
 ! A76   A(29,33,38)           119.7064         estimate D2E/DX2                !
 ! A77   A(34,33,38)           120.6088         estimate D2E/DX2                !
 ! A78   A(33,34,35)           119.6147         estimate D2E/DX2                !
 ! A79   A(33,34,41)           116.2592         estimate D2E/DX2                !
 ! A80   A(35,34,41)           124.1261         estimate D2E/DX2                !
 ! A81   A(34,35,36)           119.073          estimate D2E/DX2                !
 ! A82   A(34,35,49)           120.8864         estimate D2E/DX2                !
 ! A83   A(36,35,49)           120.0406         estimate D2E/DX2                !
 ! A84   A(35,36,37)           122.0111         estimate D2E/DX2                !
 ! A85   A(35,36,50)           118.9927         estimate D2E/DX2                !
 ! A86   A(37,36,50)           118.9963         estimate D2E/DX2                !
 ! A87   A(36,37,38)           119.0793         estimate D2E/DX2                !
 ! A88   A(36,37,51)           120.0642         estimate D2E/DX2                !
 ! A89   A(38,37,51)           120.8564         estimate D2E/DX2                !
 ! A90   A(33,38,37)           119.6118         estimate D2E/DX2                !
 ! A91   A(33,38,39)           116.2961         estimate D2E/DX2                !
 ! A92   A(37,38,39)           124.0918         estimate D2E/DX2                !
 ! A93   A(38,39,40)           119.1877         estimate D2E/DX2                !
 ! A94   A(39,40,52)           106.0959         estimate D2E/DX2                !
 ! A95   A(39,40,53)           111.1123         estimate D2E/DX2                !
 ! A96   A(39,40,54)           111.0897         estimate D2E/DX2                !
 ! A97   A(52,40,53)           109.3789         estimate D2E/DX2                !
 ! A98   A(52,40,54)           109.3932         estimate D2E/DX2                !
 ! A99   A(53,40,54)           109.6903         estimate D2E/DX2                !
 ! A100  A(34,41,42)           119.1561         estimate D2E/DX2                !
 ! A101  A(41,42,55)           106.1058         estimate D2E/DX2                !
 ! A102  A(41,42,56)           111.0987         estimate D2E/DX2                !
 ! A103  A(41,42,57)           111.0923         estimate D2E/DX2                !
 ! A104  A(55,42,56)           109.3958         estimate D2E/DX2                !
 ! A105  A(55,42,57)           109.3807         estimate D2E/DX2                !
 ! A106  A(56,42,57)           109.6875         estimate D2E/DX2                !
 ! A107  L(2,1,28,16,-1)       181.8511         estimate D2E/DX2                !
 ! A108  L(2,13,7,9,-1)        179.6817         estimate D2E/DX2                !
 ! A109  L(2,1,28,16,-2)       182.1416         estimate D2E/DX2                !
 ! A110  L(2,13,7,9,-2)        180.1561         estimate D2E/DX2                !
 ! D1    D(1,2,7,11)           -57.9143         estimate D2E/DX2                !
 ! D2    D(1,2,7,12)            66.3495         estimate D2E/DX2                !
 ! D3    D(1,2,7,18)           178.6691         estimate D2E/DX2                !
 ! D4    D(3,2,7,11)           168.2718         estimate D2E/DX2                !
 ! D5    D(3,2,7,12)           -67.4644         estimate D2E/DX2                !
 ! D6    D(3,2,7,18)            44.8551         estimate D2E/DX2                !
 ! D7    D(3,2,28,27)         -133.4567         estimate D2E/DX2                !
 ! D8    D(3,2,28,29)           43.2326         estimate D2E/DX2                !
 ! D9    D(13,2,28,27)          91.0357         estimate D2E/DX2                !
 ! D10   D(13,2,28,29)         -92.275          estimate D2E/DX2                !
 ! D11   D(1,2,3,4)            -60.1889         estimate D2E/DX2                !
 ! D12   D(1,2,3,5)             57.8169         estimate D2E/DX2                !
 ! D13   D(1,2,3,21)           178.7518         estimate D2E/DX2                !
 ! D14   D(13,2,3,4)            77.7629         estimate D2E/DX2                !
 ! D15   D(13,2,3,5)          -164.2313         estimate D2E/DX2                !
 ! D16   D(13,2,3,21)          -43.2963         estimate D2E/DX2                !
 ! D17   D(2,3,21,22)          178.7603         estimate D2E/DX2                !
 ! D18   D(2,3,21,23)          -61.2505         estimate D2E/DX2                !
 ! D19   D(2,3,21,24)           58.6548         estimate D2E/DX2                !
 ! D20   D(4,3,21,22)           57.2787         estimate D2E/DX2                !
 ! D21   D(4,3,21,23)          177.2679         estimate D2E/DX2                !
 ! D22   D(4,3,21,24)          -62.8268         estimate D2E/DX2                !
 ! D23   D(5,3,21,22)          -59.8102         estimate D2E/DX2                !
 ! D24   D(5,3,21,23)           60.179          estimate D2E/DX2                !
 ! D25   D(5,3,21,24)         -179.9157         estimate D2E/DX2                !
 ! D26   D(9,6,8,11)           166.7428         estimate D2E/DX2                !
 ! D27   D(9,6,8,14)           -70.9881         estimate D2E/DX2                !
 ! D28   D(9,6,8,15)            46.5939         estimate D2E/DX2                !
 ! D29   D(10,6,8,11)          -75.0313         estimate D2E/DX2                !
 ! D30   D(10,6,8,14)           47.2378         estimate D2E/DX2                !
 ! D31   D(10,6,8,15)          164.8199         estimate D2E/DX2                !
 ! D32   D(20,6,8,11)           43.2052         estimate D2E/DX2                !
 ! D33   D(20,6,8,14)          165.4743         estimate D2E/DX2                !
 ! D34   D(20,6,8,15)          -76.9437         estimate D2E/DX2                !
 ! D35   D(8,6,20,18)          -18.8873         estimate D2E/DX2                !
 ! D36   D(8,6,20,19)          164.3474         estimate D2E/DX2                !
 ! D37   D(9,6,20,18)         -145.315          estimate D2E/DX2                !
 ! D38   D(9,6,20,19)           37.9197         estimate D2E/DX2                !
 ! D39   D(10,6,20,18)         102.1427         estimate D2E/DX2                !
 ! D40   D(10,6,20,19)         -74.6227         estimate D2E/DX2                !
 ! D41   D(12,7,11,8)          170.6911         estimate D2E/DX2                !
 ! D42   D(12,7,11,16)         -67.9066         estimate D2E/DX2                !
 ! D43   D(12,7,11,17)          49.2255         estimate D2E/DX2                !
 ! D44   D(13,7,11,8)          -67.0751         estimate D2E/DX2                !
 ! D45   D(13,7,11,16)          54.3272         estimate D2E/DX2                !
 ! D46   D(13,7,11,17)         171.4592         estimate D2E/DX2                !
 ! D47   D(18,7,11,8)           52.7744         estimate D2E/DX2                !
 ! D48   D(18,7,11,16)         174.1767         estimate D2E/DX2                !
 ! D49   D(18,7,11,17)         -68.6912         estimate D2E/DX2                !
 ! D50   D(11,7,18,20)         -28.9208         estimate D2E/DX2                !
 ! D51   D(12,7,18,20)        -151.2392         estimate D2E/DX2                !
 ! D52   D(13,7,18,20)          93.4485         estimate D2E/DX2                !
 ! D53   D(6,8,11,7)           -59.6974         estimate D2E/DX2                !
 ! D54   D(6,8,11,16)         -179.0518         estimate D2E/DX2                !
 ! D55   D(6,8,11,17)           61.8356         estimate D2E/DX2                !
 ! D56   D(14,8,11,7)          179.0734         estimate D2E/DX2                !
 ! D57   D(14,8,11,16)          59.719          estimate D2E/DX2                !
 ! D58   D(14,8,11,17)         -59.3936         estimate D2E/DX2                !
 ! D59   D(15,8,11,7)           60.7803         estimate D2E/DX2                !
 ! D60   D(15,8,11,16)         -58.574          estimate D2E/DX2                !
 ! D61   D(15,8,11,17)        -177.6866         estimate D2E/DX2                !
 ! D62   D(7,18,20,6)           11.2736         estimate D2E/DX2                !
 ! D63   D(7,18,20,19)        -171.8492         estimate D2E/DX2                !
 ! D64   D(29,25,26,27)         -0.2515         estimate D2E/DX2                !
 ! D65   D(29,25,26,30)        178.3429         estimate D2E/DX2                !
 ! D66   D(26,25,29,28)          0.0181         estimate D2E/DX2                !
 ! D67   D(26,25,29,33)        179.5557         estimate D2E/DX2                !
 ! D68   D(25,26,27,28)          0.4158         estimate D2E/DX2                !
 ! D69   D(25,26,27,32)        178.6789         estimate D2E/DX2                !
 ! D70   D(30,26,27,28)       -178.5751         estimate D2E/DX2                !
 ! D71   D(30,26,27,32)         -0.312          estimate D2E/DX2                !
 ! D72   D(25,26,30,31)        166.1628         estimate D2E/DX2                !
 ! D73   D(25,26,30,43)        -75.5709         estimate D2E/DX2                !
 ! D74   D(25,26,30,44)         44.7924         estimate D2E/DX2                !
 ! D75   D(27,26,30,31)        -15.245          estimate D2E/DX2                !
 ! D76   D(27,26,30,43)        103.0213         estimate D2E/DX2                !
 ! D77   D(27,26,30,44)       -136.6154         estimate D2E/DX2                !
 ! D78   D(26,27,28,1)         177.4175         estimate D2E/DX2                !
 ! D79   D(26,27,28,29)         -0.3605         estimate D2E/DX2                !
 ! D80   D(32,27,28,1)          -0.2693         estimate D2E/DX2                !
 ! D81   D(32,27,28,29)       -178.0473         estimate D2E/DX2                !
 ! D82   D(26,27,32,31)         15.7978         estimate D2E/DX2                !
 ! D83   D(26,27,32,47)       -103.2857         estimate D2E/DX2                !
 ! D84   D(26,27,32,48)        136.5067         estimate D2E/DX2                !
 ! D85   D(28,27,32,31)       -166.5477         estimate D2E/DX2                !
 ! D86   D(28,27,32,47)         74.3688         estimate D2E/DX2                !
 ! D87   D(28,27,32,48)        -45.8387         estimate D2E/DX2                !
 ! D88   D(1,28,29,25)        -177.8664         estimate D2E/DX2                !
 ! D89   D(1,28,29,33)           2.6282         estimate D2E/DX2                !
 ! D90   D(27,28,29,25)          0.2139         estimate D2E/DX2                !
 ! D91   D(27,28,29,33)       -179.2915         estimate D2E/DX2                !
 ! D92   D(25,29,33,34)         89.6392         estimate D2E/DX2                !
 ! D93   D(25,29,33,38)        -90.1456         estimate D2E/DX2                !
 ! D94   D(28,29,33,34)        -90.8742         estimate D2E/DX2                !
 ! D95   D(28,29,33,38)         89.341          estimate D2E/DX2                !
 ! D96   D(26,30,31,32)         24.2314         estimate D2E/DX2                !
 ! D97   D(26,30,31,45)        -93.503          estimate D2E/DX2                !
 ! D98   D(26,30,31,46)        146.6576         estimate D2E/DX2                !
 ! D99   D(43,30,31,32)        -92.5967         estimate D2E/DX2                !
 ! D100  D(43,30,31,45)        149.6689         estimate D2E/DX2                !
 ! D101  D(43,30,31,46)         29.8295         estimate D2E/DX2                !
 ! D102  D(44,30,31,32)        145.5796         estimate D2E/DX2                !
 ! D103  D(44,30,31,45)         27.8451         estimate D2E/DX2                !
 ! D104  D(44,30,31,46)        -91.9943         estimate D2E/DX2                !
 ! D105  D(30,31,32,27)        -24.4829         estimate D2E/DX2                !
 ! D106  D(30,31,32,47)         92.6232         estimate D2E/DX2                !
 ! D107  D(30,31,32,48)       -143.6051         estimate D2E/DX2                !
 ! D108  D(45,31,32,27)         93.2439         estimate D2E/DX2                !
 ! D109  D(45,31,32,47)       -149.65           estimate D2E/DX2                !
 ! D110  D(45,31,32,48)        -25.8783         estimate D2E/DX2                !
 ! D111  D(46,31,32,27)       -147.3035         estimate D2E/DX2                !
 ! D112  D(46,31,32,47)        -30.1975         estimate D2E/DX2                !
 ! D113  D(46,31,32,48)         93.5743         estimate D2E/DX2                !
 ! D114  D(29,33,34,35)        179.8062         estimate D2E/DX2                !
 ! D115  D(29,33,34,41)         -0.1612         estimate D2E/DX2                !
 ! D116  D(38,33,34,35)         -0.411          estimate D2E/DX2                !
 ! D117  D(38,33,34,41)        179.6216         estimate D2E/DX2                !
 ! D118  D(29,33,38,37)       -179.8145         estimate D2E/DX2                !
 ! D119  D(29,33,38,39)         -0.0207         estimate D2E/DX2                !
 ! D120  D(34,33,38,37)          0.4027         estimate D2E/DX2                !
 ! D121  D(34,33,38,39)       -179.8035         estimate D2E/DX2                !
 ! D122  D(33,34,35,36)          0.2042         estimate D2E/DX2                !
 ! D123  D(33,34,35,49)       -179.7937         estimate D2E/DX2                !
 ! D124  D(41,34,35,36)       -179.8311         estimate D2E/DX2                !
 ! D125  D(41,34,35,49)          0.171          estimate D2E/DX2                !
 ! D126  D(33,34,41,42)        179.6242         estimate D2E/DX2                !
 ! D127  D(35,34,41,42)         -0.3416         estimate D2E/DX2                !
 ! D128  D(34,35,36,37)          0.0073         estimate D2E/DX2                !
 ! D129  D(34,35,36,50)       -179.9961         estimate D2E/DX2                !
 ! D130  D(49,35,36,37)       -179.9947         estimate D2E/DX2                !
 ! D131  D(49,35,36,50)          0.0018         estimate D2E/DX2                !
 ! D132  D(35,36,37,38)         -0.0156         estimate D2E/DX2                !
 ! D133  D(35,36,37,51)        179.9317         estimate D2E/DX2                !
 ! D134  D(50,36,37,38)        179.9878         estimate D2E/DX2                !
 ! D135  D(50,36,37,51)         -0.0649         estimate D2E/DX2                !
 ! D136  D(36,37,38,33)         -0.1877         estimate D2E/DX2                !
 ! D137  D(36,37,38,39)       -179.9646         estimate D2E/DX2                !
 ! D138  D(51,37,38,33)        179.8654         estimate D2E/DX2                !
 ! D139  D(51,37,38,39)          0.0886         estimate D2E/DX2                !
 ! D140  D(33,38,39,40)       -179.6365         estimate D2E/DX2                !
 ! D141  D(37,38,39,40)          0.1471         estimate D2E/DX2                !
 ! D142  D(38,39,40,52)        179.9942         estimate D2E/DX2                !
 ! D143  D(38,39,40,53)        -61.2147         estimate D2E/DX2                !
 ! D144  D(38,39,40,54)         61.1983         estimate D2E/DX2                !
 ! D145  D(34,41,42,55)       -179.8531         estimate D2E/DX2                !
 ! D146  D(34,41,42,56)        -61.0431         estimate D2E/DX2                !
 ! D147  D(34,41,42,57)         61.3586         estimate D2E/DX2                !
 --------------------------------------------------------------------------------
 Trust Radius=3.00D-01 FncErr=1.00D-07 GrdErr=1.00D-06
 Number of steps in this run=    327 maximum allowed number of steps=    342.
 GradGradGradGradGradGradGradGradGradGradGradGradGradGradGradGradGradGrad

 Leave Link  103 at Wed Nov 17 23:46:41 2021, MaxMem=  6710886400 cpu:         0.2
 (Enter /usr/local/gqt/g09/l202.exe)
 Stoichiometry    C20H29N3O5
 Framework group  C1[X(C20H29N3O5)]
 Deg. of freedom   165
 Full point group                 C1      NOp   1
 Largest Abelian subgroup         C1      NOp   1
 Largest concise Abelian subgroup C1      NOp   1
                         Standard orientation:                         
 ---------------------------------------------------------------------
 Center     Atomic      Atomic             Coordinates (Angstroms)
 Number     Number       Type             X           Y           Z
 ---------------------------------------------------------------------
      1          1           0        0.331302    0.378912   -0.926890
      2          8           0        1.173286   -0.057890   -1.199522
      3          6           0        0.875457   -1.257693   -1.875179
      4          1           0        0.317755   -1.936730   -1.221396
      5          1           0        0.239417   -1.059828   -2.744400
      6          6           0        6.001029    1.187570   -0.214063
      7          6           0        3.798641   -0.181115    1.040749
      8          6           0        4.789046    1.947165    0.297891
      9          1           0        6.331860    1.534331   -1.189351
     10          1           0        6.844711    1.333966    0.463871
     11          6           0        4.201709    1.201260    1.480210
     12          1           0        3.522190   -0.813802    1.878178
     13          1           0        2.967801   -0.142488    0.337751
     14          1           0        5.078787    2.958989    0.570781
     15          1           0        4.039707    2.030002   -0.489382
     16          1           0        3.318304    1.703918    1.869106
     17          1           0        4.927784    1.146391    2.292541
     18          8           0        4.867490   -0.898359    0.380715
     19          8           0        6.597729   -0.994648   -0.944840
     20          6           0        5.837473   -0.305571   -0.307141
     21          6           0        2.156764   -1.919010   -2.323799
     22          1           0        1.946059   -2.860038   -2.829463
     23          1           0        2.700932   -1.275721   -3.013586
     24          1           0        2.802275   -2.125069   -1.471607
     25          7           0       -3.487917    1.185766    0.381439
     26          6           0       -3.142487    2.367652   -0.001336
     27          7           0       -1.863302    2.371907   -0.471598
     28          6           0       -1.324179    1.135383   -0.411485
     29          7           0       -2.349595    0.443683    0.118091
     30          6           0       -3.751655    3.716538   -0.096524
     31          6           0       -2.506939    4.601035   -0.327919
     32          6           0       -1.439398    3.680121   -0.944110
     33          6           0       -2.336985   -0.937495    0.421093
     34          6           0       -2.756487   -1.859954   -0.539402
     35          6           0       -2.739643   -3.219819   -0.240926
     36          6           0       -2.309010   -3.628823    1.009782
     37          6           0       -1.894159   -2.726585    1.974378
     38          6           0       -1.909451   -1.366012    1.679493
     39          8           0       -1.529056   -0.405782    2.537238
     40          6           0       -1.077417   -0.772071    3.826763
     41          8           0       -3.156591   -1.352094   -1.715650
     42          6           0       -3.586599   -2.232434   -2.735819
     43          1           0       -4.434616    3.752296   -0.945063
     44          1           0       -4.310478    3.993406    0.791646
     45          1           0       -2.149828    4.976150    0.628109
     46          1           0       -2.718294    5.453935   -0.963770
     47          1           0       -1.457398    3.697417   -2.031673
     48          1           0       -0.434235    3.906570   -0.606064
     49          1           0       -3.055499   -3.949004   -0.967263
     50          1           0       -2.296415   -4.683800    1.239863
     51          1           0       -1.566398   -3.079183    2.937200
     52          1           0       -0.829232    0.153510    4.332254
     53          1           0       -1.857366   -1.289778    4.383170
     54          1           0       -0.190248   -1.400736    3.767307
     55          1           0       -3.854244   -1.607220   -3.579255
     56          1           0       -2.788373   -2.912595   -3.028789
     57          1           0       -4.457702   -2.803959   -2.418822
 ---------------------------------------------------------------------
 Rotational constants (GHZ):      0.1961738      0.0949821      0.0819719
 Leave Link  202 at Wed Nov 17 23:46:41 2021, MaxMem=  6710886400 cpu:         0.0
 (Enter /usr/local/gqt/g09/l301.exe)
 Standard basis: 6-311+G(d,p) (5D, 7F)
 Ernie: Thresh=  0.10000D-02 Tol=  0.10000D-05 Strict=F.
 There are   818 symmetry adapted cartesian basis functions of A   symmetry.
 There are   790 symmetry adapted basis functions of A   symmetry.
   790 basis functions,  1240 primitive gaussians,   818 cartesian basis functions
   105 alpha electrons      105 beta electrons
       nuclear repulsion energy      2692.1540661998 Hartrees.
 IExCor= 5547 DFT=T Ex+Corr=N12SX ExCW=0 ScaHFX=  0.250000
 ScaDFX=  1.000000  1.000000  1.000000  1.000000 ScalE2=  1.000000  1.000000
 IRadAn=      0 IRanWt=     -1 IRanGd=            0 ICorTp=0 IEmpDi=  4
  HFx wShort=  0.110000 wLong=  0.000000 cFull=  0.000000 cShort=  1.000000 cLong=  0.000000
  DFx wShort=  0.110000 wLong=  0.000000 cFull=  0.000000 cShort=  1.000000 cLong=  0.000000
 NAtoms=   57 NActive=   57 NUniq=   57 SFac= 1.00D+00 NAtFMM=   60 NAOKFM=F Big=F
 Integral buffers will be    131072 words long.
 Raffenetti 2 integral format.
 Two-electron integral symmetry is turned on.
 ------------------------------------------------------------------------------
 Polarizable Continuum Model (PCM)
 =================================
 Model                : PCM (using non-symmetric T matrix).
 Atomic radii         : UFF (Universal Force Field).
 Polarization charges : Total charges.
 Charge compensation  : None.
 Solution method      : On-the-fly selection.
 Cavity type          : Scaled VdW (van der Waals Surface) (Alpha=1.100).
 Cavity algorithm     : GePol (No added spheres)
                        Default sphere list used, NSphG=   57.
                        Lebedev-Laikov grids with approx.  5.0 points / Ang**2.
                        Smoothing algorithm: Karplus/York (Gamma=1.0000).
                        Polarization charges: spherical gaussians, with
                                              point-specific exponents (IZeta= 3).
                        Self-potential: point-specific (ISelfS= 7).
                        Self-field    : sphere-specific E.n sum rule (ISelfD= 2).
 1st derivatives      : Analytical E(r).r(x)/FMM algorithm (CHGder, D1EAlg=3).
                        Cavity 1st derivative terms included.
 Solvent              : Ethanol, Eps=  24.852000 Eps(inf)=   1.852593
 ------------------------------------------------------------------------------
 GePol: Number of generator spheres                  =      57
 GePol: Total number of spheres                      =      57
 GePol: Number of exposed spheres                    =      57 (100.00%)
 GePol: Number of points                             =    4311
 GePol: Average weight of points                     =       0.13
 GePol: Minimum weight of points                     =   0.69D-10
 GePol: Maximum weight of points                     =    0.20577
 GePol: Number of points with low weight             =     340
 GePol: Fraction of low-weight points (<1% of avg)   =       7.89%
 GePol: Cavity surface area                          =    543.966 Ang**2
 GePol: Cavity volume                                =    569.168 Ang**3
 Leave Link  301 at Wed Nov 17 23:46:41 2021, MaxMem=  6710886400 cpu:         0.8
 (Enter /usr/local/gqt/g09/l302.exe)
 NPDir=0 NMtPBC=     1 NCelOv=     1 NCel=       1 NClECP=     1 NCelD=      1
         NCelK=      1 NCelE2=     1 NClLst=     1 CellRange=     0.0.
 One-electron integrals computed using PRISM.
 NBasis=   790 RedAO= T EigKep=  1.28D-06  NBF=   790
 NBsUse=   788 1.00D-06 EigRej=  3.15D-07 NBFU=   788
 Precomputing XC quadrature grid using
 IXCGrd= 4 IRadAn=           0 IRanWt=          -1 IRanGd=           0 AccXCQ= 0.00D+00.
 Generated NRdTot=       0 NPtTot=           0 NUsed=           0 NTot=          32
 NSgBfM=   805   805   806   806   806 MxSgAt=    57 MxSgA2=    57.
 Leave Link  302 at Wed Nov 17 23:46:43 2021, MaxMem=  6710886400 cpu:        29.1
 (Enter /usr/local/gqt/g09/l303.exe)
 DipDrv:  MaxL=1.
 Leave Link  303 at Wed Nov 17 23:46:43 2021, MaxMem=  6710886400 cpu:         2.1
 (Enter /usr/local/gqt/g09/l401.exe)
 ExpMin= 4.38D-02 ExpMax= 8.59D+03 ExpMxC= 1.30D+03 IAcc=2 IRadAn=         4 AccDes= 0.00D+00
 Harris functional with IExCor= 5547 and IRadAn=       4 diagonalized for initial guess.
 HarFok:  IExCor= 5547 AccDes= 0.00D+00 IRadAn=         4 IDoV= 1 UseB2=F ITyADJ=14
 ICtDFT=  3500011 ScaDFX=  1.000000  1.000000  1.000000  1.000000
 FoFCou: FMM=F IPFlag=           0 FMFlag=      100000 FMFlg1=           0
         NFxFlg=           0 DoJE=T BraDBF=F KetDBF=T FulRan=T
         wScrn=  0.000000 ICntrl=     500 IOpCl=  0 I1Cent=   200000004 NGrid=           0
         NMat0=    1 NMatS0=      1 NMatT0=    0 NMatD0=    1 NMtDS0=    0 NMtDT0=    0
 Petite list used in FoFCou.
 Harris En= -1279.76503573894    
 JPrj=0 DoOrth=F DoCkMO=F.
 Leave Link  401 at Wed Nov 17 23:46:48 2021, MaxMem=  6710886400 cpu:        69.6
 (Enter /usr/local/gqt/g09/l502.exe)
 Closed shell SCF:
 Using DIIS extrapolation, IDIIS=  1040.
 Integral symmetry usage will be decided dynamically.
 IVT=     2045106 IEndB=     2045106 NGot=  6710886400 MDV=  6709527877
 LenX=  6709527877 LenY=  6708857935
 Requested convergence on RMS density matrix=1.00D-08 within 128 cycles.
 Requested convergence on MAX density matrix=1.00D-06.
 Requested convergence on             energy=1.00D-06.
 No special actions if energy rises.
 Fock matrices will be formed incrementally for  20 cycles.

 Cycle   1  Pass 1  IDiag  1:
 FoFJK:  IHMeth= 1 ICntrl=       0 DoSepK=T KAlg= 0 I1Cent=   0 FoldK=F
 IRaf=         1 NMat=   1 IRICut=       1 DoRegI=T DoRafI=F ISym2E= 0.
 FoFCou: FMM=F IPFlag=           0 FMFlag=      100000 FMFlg1=           0
         NFxFlg=           0 DoJE=T BraDBF=F KetDBF=F FulRan=T
         wScrn=  0.000000 ICntrl=     500 IOpCl=  0 I1Cent=           0 NGrid=           0
         NMat0=    1 NMatS0=      1 NMatT0=    0 NMatD0=    1 NMtDS0=    0 NMtDT0=    0
 Symmetry not used in FoFCou.
 Inv3:  Mode=1 IEnd=    55754163.
 Iteration    1 A*A^-1 deviation from unit magnitude is 8.22D-15 for   4300.
 Iteration    1 A*A^-1 deviation from orthogonality  is 1.33D-14 for   4295   3332.
 Iteration    1 A^-1*A deviation from unit magnitude is 7.77D-15 for   4294.
 Iteration    1 A^-1*A deviation from orthogonality  is 1.01D-10 for   4302   4295.
 Iteration    2 A*A^-1 deviation from unit magnitude is 3.55D-15 for    307.
 Iteration    2 A*A^-1 deviation from orthogonality  is 4.25D-15 for   4297   1843.
 Iteration    2 A^-1*A deviation from unit magnitude is 1.11D-15 for   1861.
 Iteration    2 A^-1*A deviation from orthogonality  is 9.15D-16 for   4263   1857.
 E= -1319.11441214748    
 DIIS: error= 6.01D-02 at cycle   1 NSaved=   1.
 NSaved= 1 IEnMin= 1 EnMin= -1319.11441214748     IErMin= 1 ErrMin= 6.01D-02
 ErrMax= 6.01D-02  0.00D+00 EMaxC= 1.00D-01 BMatC= 3.35D+00 BMatP= 3.35D+00
 IDIUse=3 WtCom= 3.99D-01 WtEn= 6.01D-01
 Coeff-Com:  0.100D+01
 Coeff-En:   0.100D+01
 Coeff:      0.100D+01
 Gap=     0.318 Goal=   None    Shift=    0.000
 GapD=    0.318 DampG=1.000 DampE=0.500 DampFc=0.5000 IDamp=-1.
 Damping current iteration by 5.00D-01
 RMSDP=1.03D-02 MaxDP=1.23D+00              OVMax= 3.54D-01

 Cycle   2  Pass 1  IDiag  1:
 RMSU=  4.65D-03    CP:  9.37D-01
 E= -1319.28852066902     Delta-E=       -0.174108521544 Rises=F Damp=T
 DIIS: error= 2.67D-02 at cycle   2 NSaved=   2.
 NSaved= 2 IEnMin= 2 EnMin= -1319.28852066902     IErMin= 2 ErrMin= 2.67D-02
 ErrMax= 2.67D-02  0.00D+00 EMaxC= 1.00D-01 BMatC= 6.82D-01 BMatP= 3.35D+00
 IDIUse=3 WtCom= 7.33D-01 WtEn= 2.67D-01
 Coeff-Com: -0.353D+00 0.135D+01
 Coeff-En:   0.254D+00 0.746D+00
 Coeff:     -0.191D+00 0.119D+01
 Gap=     0.231 Goal=   None    Shift=    0.000
 RMSDP=8.25D-03 MaxDP=1.08D+00 DE=-1.74D-01 OVMax= 3.90D-01

 Cycle   3  Pass 1  IDiag  1:
 RMSU=  6.07D-03    CP:  8.82D-01 -1.19D-01
 E= -1319.15652702198     Delta-E=        0.131993647048 Rises=F Damp=F
 DIIS: error= 4.44D-02 at cycle   3 NSaved=   3.
 NSaved= 3 IEnMin= 2 EnMin= -1319.28852066902     IErMin= 2 ErrMin= 2.67D-02
 ErrMax= 4.44D-02  0.00D+00 EMaxC= 1.00D-01 BMatC= 5.91D-01 BMatP= 6.82D-01
 IDIUse=3 WtCom= 5.56D-01 WtEn= 4.44D-01
 Coeff-Com: -0.359D+00 0.828D+00 0.531D+00
 Coeff-En:   0.000D+00 0.620D+00 0.380D+00
 Coeff:     -0.200D+00 0.735D+00 0.464D+00
 Gap=     0.251 Goal=   None    Shift=    0.000
 RMSDP=7.60D-03 MaxDP=9.27D-01 DE= 1.32D-01 OVMax= 2.30D-01

 Cycle   4  Pass 1  IDiag  1:
 RMSU=  2.10D-03    CP:  8.12D-01  1.07D+00  3.34D-01
 E= -1319.60510528093     Delta-E=       -0.448578258956 Rises=F Damp=F
 DIIS: error= 8.93D-03 at cycle   4 NSaved=   4.
 NSaved= 4 IEnMin= 4 EnMin= -1319.60510528093     IErMin= 4 ErrMin= 8.93D-03
 ErrMax= 8.93D-03  0.00D+00 EMaxC= 1.00D-01 BMatC= 4.55D-02 BMatP= 5.91D-01
 IDIUse=3 WtCom= 9.11D-01 WtEn= 8.93D-02
 Coeff-Com: -0.151D+00 0.349D+00 0.325D+00 0.477D+00
 Coeff-En:   0.000D+00 0.000D+00 0.604D-01 0.940D+00
 Coeff:     -0.137D+00 0.318D+00 0.302D+00 0.518D+00
 Gap=     0.198 Goal=   None    Shift=    0.000
 RMSDP=1.30D-03 MaxDP=1.36D-01 DE=-4.49D-01 OVMax= 6.58D-02

 Cycle   5  Pass 1  IDiag  1:
 RMSU=  5.20D-04    CP:  8.11D-01  9.05D-01  4.77D-01  8.78D-01
 E= -1319.64026760288     Delta-E=       -0.035162321951 Rises=F Damp=F
 DIIS: error= 2.04D-03 at cycle   5 NSaved=   5.
 NSaved= 5 IEnMin= 5 EnMin= -1319.64026760288     IErMin= 5 ErrMin= 2.04D-03
 ErrMax= 2.04D-03  0.00D+00 EMaxC= 1.00D-01 BMatC= 3.70D-03 BMatP= 4.55D-02
 IDIUse=3 WtCom= 9.80D-01 WtEn= 2.04D-02
 Coeff-Com: -0.303D-01 0.731D-01 0.102D+00 0.310D+00 0.545D+00
 Coeff-En:   0.000D+00 0.000D+00 0.000D+00 0.516D-01 0.948D+00
 Coeff:     -0.297D-01 0.716D-01 0.998D-01 0.305D+00 0.553D+00
 Gap=     0.196 Goal=   None    Shift=    0.000
 RMSDP=3.31D-04 MaxDP=3.10D-02 DE=-3.52D-02 OVMax= 1.94D-02

 Cycle   6  Pass 1  IDiag  1:
 RMSU=  1.94D-04    CP:  8.16D-01  9.14D-01  4.71D-01  9.19D-01  6.46D-01
 E= -1319.64293583925     Delta-E=       -0.002668236372 Rises=F Damp=F
 DIIS: error= 7.13D-04 at cycle   6 NSaved=   6.
 NSaved= 6 IEnMin= 6 EnMin= -1319.64293583925     IErMin= 6 ErrMin= 7.13D-04
 ErrMax= 7.13D-04  0.00D+00 EMaxC= 1.00D-01 BMatC= 4.66D-04 BMatP= 3.70D-03
 IDIUse=3 WtCom= 9.93D-01 WtEn= 7.13D-03
 Coeff-Com:  0.587D-02-0.116D-01 0.862D-02 0.103D+00 0.344D+00 0.551D+00
 Coeff-En:   0.000D+00 0.000D+00 0.000D+00 0.000D+00 0.109D+00 0.891D+00
 Coeff:      0.582D-02-0.115D-01 0.856D-02 0.102D+00 0.342D+00 0.553D+00
 Gap=     0.197 Goal=   None    Shift=    0.000
 RMSDP=1.38D-04 MaxDP=1.64D-02 DE=-2.67D-03 OVMax= 6.22D-03

 Cycle   7  Pass 1  IDiag  1:
 RMSU=  7.57D-05    CP:  8.14D-01  9.17D-01  4.74D-01  9.21D-01  7.08D-01
                    CP:  6.01D-01
 E= -1319.64331915713     Delta-E=       -0.000383317878 Rises=F Damp=F
 DIIS: error= 1.74D-04 at cycle   7 NSaved=   7.
 NSaved= 7 IEnMin= 7 EnMin= -1319.64331915713     IErMin= 7 ErrMin= 1.74D-04
 ErrMax= 1.74D-04  0.00D+00 EMaxC= 1.00D-01 BMatC= 1.86D-05 BMatP= 4.66D-04
 IDIUse=3 WtCom= 9.98D-01 WtEn= 1.74D-03
 Coeff-Com:  0.419D-02-0.871D-02-0.920D-03 0.351D-01 0.142D+00 0.274D+00
 Coeff-Com:  0.554D+00
 Coeff-En:   0.000D+00 0.000D+00 0.000D+00 0.000D+00 0.000D+00 0.000D+00
 Coeff-En:   0.100D+01
 Coeff:      0.419D-02-0.869D-02-0.918D-03 0.350D-01 0.142D+00 0.274D+00
 Coeff:      0.555D+00
 Gap=     0.197 Goal=   None    Shift=    0.000
 RMSDP=2.42D-05 MaxDP=2.21D-03 DE=-3.83D-04 OVMax= 1.85D-03

 Cycle   8  Pass 1  IDiag  1:
 RMSU=  1.65D-05    CP:  8.14D-01  9.15D-01  4.74D-01  9.21D-01  7.02D-01
                    CP:  6.52D-01  8.55D-01
 E= -1319.64333184177     Delta-E=       -0.000012684637 Rises=F Damp=F
 DIIS: error= 7.36D-05 at cycle   8 NSaved=   8.
 NSaved= 8 IEnMin= 8 EnMin= -1319.64333184177     IErMin= 8 ErrMin= 7.36D-05
 ErrMax= 7.36D-05  0.00D+00 EMaxC= 1.00D-01 BMatC= 3.45D-06 BMatP= 1.86D-05
 IDIUse=1 WtCom= 1.00D+00 WtEn= 0.00D+00
 Coeff-Com:  0.128D-02-0.265D-02-0.139D-02 0.634D-02 0.335D-01 0.795D-01
 Coeff-Com:  0.332D+00 0.551D+00
 Coeff:      0.128D-02-0.265D-02-0.139D-02 0.634D-02 0.335D-01 0.795D-01
 Coeff:      0.332D+00 0.551D+00
 Gap=     0.197 Goal=   None    Shift=    0.000
 RMSDP=1.19D-05 MaxDP=1.54D-03 DE=-1.27D-05 OVMax= 5.40D-04

 Cycle   9  Pass 1  IDiag  1:
 RMSU=  6.95D-06    CP:  8.14D-01  9.16D-01  4.73D-01  9.21D-01  7.05D-01
                    CP:  6.31D-01  8.49D-01  8.39D-01
 E= -1319.64333445801     Delta-E=       -0.000002616242 Rises=F Damp=F
 DIIS: error= 2.39D-05 at cycle   9 NSaved=   9.
 NSaved= 9 IEnMin= 9 EnMin= -1319.64333445801     IErMin= 9 ErrMin= 2.39D-05
 ErrMax= 2.39D-05  0.00D+00 EMaxC= 1.00D-01 BMatC= 2.93D-07 BMatP= 3.45D-06
 IDIUse=1 WtCom= 1.00D+00 WtEn= 0.00D+00
 Coeff-Com:  0.262D-03-0.544D-03-0.564D-03 0.622D-03 0.659D-02 0.212D-01
 Coeff-Com:  0.144D+00 0.309D+00 0.519D+00
 Coeff:      0.262D-03-0.544D-03-0.564D-03 0.622D-03 0.659D-02 0.212D-01
 Coeff:      0.144D+00 0.309D+00 0.519D+00
 Gap=     0.197 Goal=   None    Shift=    0.000
 RMSDP=3.03D-06 MaxDP=3.44D-04 DE=-2.62D-06 OVMax= 1.40D-04

 Cycle  10  Pass 1  IDiag  1:
 RMSU=  1.68D-06    CP:  8.14D-01  9.16D-01  4.73D-01  9.21D-01  7.04D-01
                    CP:  6.34D-01  8.53D-01  8.48D-01  9.42D-01
 E= -1319.64333464891     Delta-E=       -0.000000190902 Rises=F Damp=F
 DIIS: error= 1.15D-05 at cycle  10 NSaved=  10.
 NSaved=10 IEnMin=10 EnMin= -1319.64333464891     IErMin=10 ErrMin= 1.15D-05
 ErrMax= 1.15D-05  0.00D+00 EMaxC= 1.00D-01 BMatC= 5.22D-08 BMatP= 2.93D-07
 IDIUse=1 WtCom= 1.00D+00 WtEn= 0.00D+00
 Coeff-Com: -0.116D-04 0.205D-04-0.155D-03-0.572D-03-0.615D-03 0.186D-02
 Coeff-Com:  0.396D-01 0.106D+00 0.325D+00 0.528D+00
 Coeff:     -0.116D-04 0.205D-04-0.155D-03-0.572D-03-0.615D-03 0.186D-02
 Coeff:      0.396D-01 0.106D+00 0.325D+00 0.528D+00
 Gap=     0.197 Goal=   None    Shift=    0.000
 RMSDP=1.62D-06 MaxDP=2.65D-04 DE=-1.91D-07 OVMax= 6.39D-05

 Cycle  11  Pass 1  IDiag  1:
 RMSU=  6.18D-07    CP:  8.14D-01  9.16D-01  4.73D-01  9.21D-01  7.04D-01
                    CP:  6.35D-01  8.56D-01  8.46D-01  8.87D-01  8.44D-01
 E= -1319.64333468490     Delta-E=       -0.000000035988 Rises=F Damp=F
 DIIS: error= 4.38D-06 at cycle  11 NSaved=  11.
 NSaved=11 IEnMin=11 EnMin= -1319.64333468490     IErMin=11 ErrMin= 4.38D-06
 ErrMax= 4.38D-06  0.00D+00 EMaxC= 1.00D-01 BMatC= 5.87D-09 BMatP= 5.22D-08
 IDIUse=1 WtCom= 1.00D+00 WtEn= 0.00D+00
 Coeff-Com: -0.241D-04 0.482D-04-0.356D-04-0.424D-03-0.987D-03-0.102D-02
 Coeff-Com:  0.693D-02 0.260D-01 0.130D+00 0.311D+00 0.529D+00
 Coeff:     -0.241D-04 0.482D-04-0.356D-04-0.424D-03-0.987D-03-0.102D-02
 Coeff:      0.693D-02 0.260D-01 0.130D+00 0.311D+00 0.529D+00
 Gap=     0.197 Goal=   None    Shift=    0.000
 RMSDP=3.37D-07 MaxDP=3.64D-05 DE=-3.60D-08 OVMax= 1.54D-05

 Cycle  12  Pass 1  IDiag  1:
 RMSU=  2.55D-07    CP:  8.14D-01  9.16D-01  4.73D-01  9.21D-01  7.04D-01
                    CP:  6.35D-01  8.57D-01  8.46D-01  8.80D-01  7.78D-01
                    CP:  8.67D-01
 E= -1319.64333468959     Delta-E=       -0.000000004686 Rises=F Damp=F
 DIIS: error= 7.87D-07 at cycle  12 NSaved=  12.
 NSaved=12 IEnMin=12 EnMin= -1319.64333468959     IErMin=12 ErrMin= 7.87D-07
 ErrMax= 7.87D-07  0.00D+00 EMaxC= 1.00D-01 BMatC= 3.01D-10 BMatP= 5.87D-09
 IDIUse=1 WtCom= 1.00D+00 WtEn= 0.00D+00
 Coeff-Com: -0.780D-05 0.146D-04 0.423D-05-0.133D-03-0.375D-03-0.684D-03
 Coeff-Com: -0.215D-02-0.234D-02 0.164D-01 0.664D-01 0.210D+00 0.713D+00
 Coeff:     -0.780D-05 0.146D-04 0.423D-05-0.133D-03-0.375D-03-0.684D-03
 Coeff:     -0.215D-02-0.234D-02 0.164D-01 0.664D-01 0.210D+00 0.713D+00
 Gap=     0.197 Goal=   None    Shift=    0.000
 RMSDP=1.75D-07 MaxDP=2.19D-05 DE=-4.69D-09 OVMax= 5.77D-06

 Cycle  13  Pass 1  IDiag  1:
 RMSU=  7.81D-08    CP:  8.14D-01  9.16D-01  4.73D-01  9.21D-01  7.04D-01
                    CP:  6.35D-01  8.58D-01  8.49D-01  8.88D-01  7.94D-01
                    CP:  8.52D-01  8.85D-01
 E= -1319.64333468991     Delta-E=       -0.000000000320 Rises=F Damp=F
 DIIS: error= 3.63D-07 at cycle  13 NSaved=  13.
 NSaved=13 IEnMin=13 EnMin= -1319.64333468991     IErMin=13 ErrMin= 3.63D-07
 ErrMax= 3.63D-07  0.00D+00 EMaxC= 1.00D-01 BMatC= 8.65D-11 BMatP= 3.01D-10
 IDIUse=1 WtCom= 1.00D+00 WtEn= 0.00D+00
 Coeff-Com: -0.198D-05 0.308D-05 0.584D-05-0.340D-04-0.111D-03-0.277D-03
 Coeff-Com: -0.189D-02-0.387D-02-0.271D-02 0.745D-02 0.658D-01 0.429D+00
 Coeff-Com:  0.507D+00
 Coeff:     -0.198D-05 0.308D-05 0.584D-05-0.340D-04-0.111D-03-0.277D-03
 Coeff:     -0.189D-02-0.387D-02-0.271D-02 0.745D-02 0.658D-01 0.429D+00
 Coeff:      0.507D+00
 Gap=     0.197 Goal=   None    Shift=    0.000
 RMSDP=7.20D-08 MaxDP=1.05D-05 DE=-3.20D-10 OVMax= 2.81D-06

 Cycle  14  Pass 1  IDiag  1:
 RMSU=  2.84D-08    CP:  8.14D-01  9.16D-01  4.73D-01  9.21D-01  7.04D-01
                    CP:  6.35D-01  8.57D-01  8.48D-01  8.89D-01  7.96D-01
                    CP:  8.71D-01  9.02D-01  6.39D-01
 E= -1319.64333469007     Delta-E=       -0.000000000163 Rises=F Damp=F
 DIIS: error= 7.28D-08 at cycle  14 NSaved=  14.
 NSaved=14 IEnMin=14 EnMin= -1319.64333469007     IErMin=14 ErrMin= 7.28D-08
 ErrMax= 7.28D-08  0.00D+00 EMaxC= 1.00D-01 BMatC= 4.35D-12 BMatP= 8.65D-11
 IDIUse=1 WtCom= 1.00D+00 WtEn= 0.00D+00
 Coeff-Com: -0.816D-06 0.138D-05 0.227D-05-0.655D-05-0.294D-04-0.930D-04
 Coeff-Com: -0.729D-03-0.170D-02-0.286D-02-0.304D-02 0.899D-02 0.128D+00
 Coeff-Com:  0.241D+00 0.630D+00
 Coeff:     -0.816D-06 0.138D-05 0.227D-05-0.655D-05-0.294D-04-0.930D-04
 Coeff:     -0.729D-03-0.170D-02-0.286D-02-0.304D-02 0.899D-02 0.128D+00
 Coeff:      0.241D+00 0.630D+00
 Gap=     0.197 Goal=   None    Shift=    0.000
 RMSDP=1.31D-08 MaxDP=2.04D-06 DE=-1.63D-10 OVMax= 5.62D-07

 Cycle  15  Pass 1  IDiag  1:
 RMSU=  7.01D-09    CP:  8.14D-01  9.16D-01  4.73D-01  9.21D-01  7.04D-01
                    CP:  6.35D-01  8.58D-01  8.48D-01  8.89D-01  7.96D-01
                    CP:  8.72D-01  9.11D-01  6.91D-01  8.12D-01
 E= -1319.64333468993     Delta-E=        0.000000000145 Rises=F Damp=F
 DIIS: error= 1.74D-08 at cycle  15 NSaved=  15.
 NSaved=15 IEnMin=14 EnMin= -1319.64333469007     IErMin=15 ErrMin= 1.74D-08
 ErrMax= 1.74D-08  0.00D+00 EMaxC= 1.00D-01 BMatC= 5.03D-13 BMatP= 4.35D-12
 IDIUse=1 WtCom= 1.00D+00 WtEn= 0.00D+00
 Coeff-Com: -0.148D-06 0.267D-06 0.460D-06 0.489D-06-0.652D-06-0.141D-04
 Coeff-Com: -0.162D-03-0.450D-03-0.980D-03-0.184D-02-0.926D-03 0.278D-01
 Coeff-Com:  0.818D-01 0.314D+00 0.580D+00
 Coeff:     -0.148D-06 0.267D-06 0.460D-06 0.489D-06-0.652D-06-0.141D-04
 Coeff:     -0.162D-03-0.450D-03-0.980D-03-0.184D-02-0.926D-03 0.278D-01
 Coeff:      0.818D-01 0.314D+00 0.580D+00
 Gap=     0.197 Goal=   None    Shift=    0.000
 RMSDP=4.77D-09 MaxDP=7.26D-07 DE= 1.45D-10 OVMax= 3.35D-07

 Error on total polarization charges =  0.01860
 SCF Done:  E(RN12SX) =  -1319.64333469     A.U. after   15 cycles
            NFock= 15  Conv=0.48D-08     -V/T= 2.0053
 KE= 1.312717854638D+03 PE=-8.465835790707D+03 EE= 3.141320535179D+03
 Leave Link  502 at Thu Nov 18 00:00:33 2021, MaxMem=  6710886400 cpu:     13120.9
 (Enter /usr/local/gqt/g09/l601.exe)
 Copying SCF densities to generalized density rwf, IOpCl= 0 IROHF=0.

 **********************************************************************

            Population analysis using the SCF density.

 **********************************************************************

 Orbital symmetries:
       Occupied  (A) (A) (A) (A) (A) (A) (A) (A) (A) (A) (A) (A)
                 (A) (A) (A) (A) (A) (A) (A) (A) (A) (A) (A) (A)
                 (A) (A) (A) (A) (A) (A) (A) (A) (A) (A) (A) (A)
                 (A) (A) (A) (A) (A) (A) (A) (A) (A) (A) (A) (A)
                 (A) (A) (A) (A) (A) (A) (A) (A) (A) (A) (A) (A)
                 (A) (A) (A) (A) (A) (A) (A) (A) (A) (A) (A) (A)
                 (A) (A) (A) (A) (A) (A) (A) (A) (A) (A) (A) (A)
                 (A) (A) (A) (A) (A) (A) (A) (A) (A) (A) (A) (A)
                 (A) (A) (A) (A) (A) (A) (A) (A) (A)
       Virtual   (A) (A) (A) (A) (A) (A) (A) (A) (A) (A) (A) (A)
                 (A) (A) (A) (A) (A) (A) (A) (A) (A) (A) (A) (A)
                 (A) (A) (A) (A) (A) (A) (A) (A) (A) (A) (A) (A)
                 (A) (A) (A) (A) (A) (A) (A) (A) (A) (A) (A) (A)
                 (A) (A) (A) (A) (A) (A) (A) (A) (A) (A) (A) (A)
                 (A) (A) (A) (A) (A) (A) (A) (A) (A) (A) (A) (A)
                 (A) (A) (A) (A) (A) (A) (A) (A) (A) (A) (A) (A)
                 (A) (A) (A) (A) (A) (A) (A) (A) (A) (A) (A) (A)
                 (A) (A) (A) (A) (A) (A) (A) (A) (A) (A) (A) (A)
                 (A) (A) (A) (A) (A) (A) (A) (A) (A) (A) (A) (A)
                 (A) (A) (A) (A) (A) (A) (A) (A) (A) (A) (A) (A)
                 (A) (A) (A) (A) (A) (A) (A) (A) (A) (A) (A) (A)
                 (A) (A) (A) (A) (A) (A) (A) (A) (A) (A) (A) (A)
                 (A) (A) (A) (A) (A) (A) (A) (A) (A) (A) (A) (A)
                 (A) (A) (A) (A) (A) (A) (A) (A) (A) (A) (A) (A)
                 (A) (A) (A) (A) (A) (A) (A) (A) (A) (A) (A) (A)
                 (A) (A) (A) (A) (A) (A) (A) (A) (A) (A) (A) (A)
                 (A) (A) (A) (A) (A) (A) (A) (A) (A) (A) (A) (A)
                 (A) (A) (A) (A) (A) (A) (A) (A) (A) (A) (A) (A)
                 (A) (A) (A) (A) (A) (A) (A) (A) (A) (A) (A) (A)
                 (A) (A) (A) (A) (A) (A) (A) (A) (A) (A) (A) (A)
                 (A) (A) (A) (A) (A) (A) (A) (A) (A) (A) (A) (A)
                 (A) (A) (A) (A) (A) (A) (A) (A) (A) (A) (A) (A)
                 (A) (A) (A) (A) (A) (A) (A) (A) (A) (A) (A) (A)
                 (A) (A) (A) (A) (A) (A) (A) (A) (A) (A) (A) (A)
                 (A) (A) (A) (A) (A) (A) (A) (A) (A) (A) (A) (A)
                 (A) (A) (A) (A) (A) (A) (A) (A) (A) (A) (A) (A)
                 (A) (A) (A) (A) (A) (A) (A) (A) (A) (A) (A) (A)
                 (A) (A) (A) (A) (A) (A) (A) (A) (A) (A) (A) (A)
                 (A) (A) (A) (A) (A) (A) (A) (A) (A) (A) (A) (A)
                 (A) (A) (A) (A) (A) (A) (A) (A) (A) (A) (A) (A)
                 (A) (A) (A) (A) (A) (A) (A) (A) (A) (A) (A) (A)
                 (A) (A) (A) (A) (A) (A) (A) (A) (A) (A) (A) (A)
                 (A) (A) (A) (A) (A) (A) (A) (A) (A) (A) (A) (A)
                 (A) (A) (A) (A) (A) (A) (A) (A) (A) (A) (A) (A)
                 (A) (A) (A) (A) (A) (A) (A) (A) (A) (A) (A) (A)
                 (A) (A) (A) (A) (A) (A) (A) (A) (A) (A) (A) (A)
                 (A) (A) (A) (A) (A) (A) (A) (A) (A) (A) (A) (A)
                 (A) (A) (A) (A) (A) (A) (A) (A) (A) (A) (A) (A)
                 (A) (A) (A) (A) (A) (A) (A) (A) (A) (A) (A) (A)
                 (A) (A) (A) (A) (A) (A) (A) (A) (A) (A) (A) (A)
                 (A) (A) (A) (A) (A) (A) (A) (A) (A) (A) (A) (A)
                 (A) (A) (A) (A) (A) (A) (A) (A) (A) (A) (A) (A)
                 (A) (A) (A) (A) (A) (A) (A) (A) (A) (A) (A) (A)
                 (A) (A) (A) (A) (A) (A) (A) (A) (A) (A) (A) (A)
                 (A) (A) (A) (A) (A) (A) (A) (A) (A) (A) (A) (A)
                 (A) (A) (A) (A) (A) (A) (A) (A) (A) (A) (A) (A)
                 (A) (A) (A) (A) (A) (A) (A) (A) (A) (A) (A) (A)
                 (A) (A) (A) (A) (A) (A) (A) (A) (A) (A) (A) (A)
                 (A) (A) (A) (A) (A) (A) (A) (A) (A) (A) (A) (A)
                 (A) (A) (A) (A) (A) (A) (A) (A) (A) (A) (A) (A)
                 (A) (A) (A) (A) (A) (A) (A) (A) (A) (A) (A) (A)
                 (A) (A) (A) (A) (A) (A) (A) (A) (A) (A) (A) (A)
                 (A) (A) (A) (A) (A) (A) (A) (A) (A) (A) (A) (A)
                 (A) (A) (A) (A) (A) (A) (A) (A) (A) (A) (A) (A)
                 (A) (A) (A) (A) (A) (A) (A) (A) (A) (A) (A) (A)
                 (A) (A) (A) (A) (A) (A) (A) (A) (A) (A) (A)
 The electronic state is 1-A.
 Alpha  occ. eigenvalues --  -19.21651 -19.21427 -19.21420 -19.15488 -19.13693
 Alpha  occ. eigenvalues --  -14.44869 -14.42549 -14.39487 -10.35975 -10.30333
 Alpha  occ. eigenvalues --  -10.30330 -10.29679 -10.27333 -10.27195 -10.27188
 Alpha  occ. eigenvalues --  -10.26956 -10.26716 -10.26258 -10.24993 -10.24396
 Alpha  occ. eigenvalues --  -10.23890 -10.23625 -10.23335 -10.22617 -10.22610
 Alpha  occ. eigenvalues --  -10.22385 -10.22258 -10.19749  -1.10533  -1.09866
 Alpha  occ. eigenvalues --   -1.07963  -1.07941  -1.01590  -0.98713  -0.96283
 Alpha  occ. eigenvalues --   -0.88289  -0.85467  -0.82217  -0.81988  -0.77181
 Alpha  occ. eigenvalues --   -0.76571  -0.76034  -0.73890  -0.73779  -0.71638
 Alpha  occ. eigenvalues --   -0.70177  -0.67720  -0.66453  -0.62729  -0.61553
 Alpha  occ. eigenvalues --   -0.60767  -0.59805  -0.59727  -0.59649  -0.55505
 Alpha  occ. eigenvalues --   -0.54229  -0.53102  -0.52474  -0.51149  -0.50873
 Alpha  occ. eigenvalues --   -0.50140  -0.50069  -0.48448  -0.48311  -0.47858
 Alpha  occ. eigenvalues --   -0.47525  -0.47402  -0.45756  -0.45548  -0.45059
 Alpha  occ. eigenvalues --   -0.44998  -0.44911  -0.44481  -0.44227  -0.43276
 Alpha  occ. eigenvalues --   -0.42288  -0.41548  -0.40183  -0.39661  -0.39492
 Alpha  occ. eigenvalues --   -0.39095  -0.38891  -0.38019  -0.37315  -0.37126
 Alpha  occ. eigenvalues --   -0.36188  -0.35585  -0.35479  -0.35415  -0.34912
 Alpha  occ. eigenvalues --   -0.34553  -0.34276  -0.33505  -0.32511  -0.32362
 Alpha  occ. eigenvalues --   -0.31761  -0.31586  -0.29623  -0.29521  -0.27600
 Alpha  occ. eigenvalues --   -0.26882  -0.25287  -0.24802  -0.24226  -0.22868
 Alpha virt. eigenvalues --   -0.03180  -0.01643  -0.01376  -0.00986  -0.00815
 Alpha virt. eigenvalues --   -0.00364   0.00099   0.00248   0.00814   0.01088
 Alpha virt. eigenvalues --    0.01186   0.01388   0.01631   0.02012   0.02150
 Alpha virt. eigenvalues --    0.02753   0.02872   0.03177   0.03485   0.03610
 Alpha virt. eigenvalues --    0.03942   0.04177   0.04513   0.05086   0.05290
 Alpha virt. eigenvalues --    0.05698   0.06015   0.06317   0.06569   0.06654
 Alpha virt. eigenvalues --    0.06863   0.07165   0.07727   0.07882   0.08197
 Alpha virt. eigenvalues --    0.08379   0.08771   0.09134   0.09424   0.09548
 Alpha virt. eigenvalues --    0.09817   0.10044   0.10205   0.10351   0.10672
 Alpha virt. eigenvalues --    0.10998   0.11068   0.11252   0.11513   0.11871
 Alpha virt. eigenvalues --    0.11926   0.12105   0.12226   0.12620   0.12937
 Alpha virt. eigenvalues --    0.12968   0.13478   0.13577   0.13939   0.14593
 Alpha virt. eigenvalues --    0.14803   0.15054   0.15277   0.15442   0.15641
 Alpha virt. eigenvalues --    0.15757   0.16203   0.16360   0.16669   0.16785
 Alpha virt. eigenvalues --    0.16983   0.17260   0.17403   0.17880   0.18129
 Alpha virt. eigenvalues --    0.18300   0.18362   0.18467   0.19224   0.19472
 Alpha virt. eigenvalues --    0.19605   0.19646   0.19925   0.20044   0.20178
 Alpha virt. eigenvalues --    0.20418   0.20572   0.20759   0.21196   0.21376
 Alpha virt. eigenvalues --    0.21610   0.21826   0.22164   0.22387   0.22551
 Alpha virt. eigenvalues --    0.22650   0.22930   0.23116   0.23235   0.23438
 Alpha virt. eigenvalues --    0.23613   0.23821   0.24180   0.24480   0.24761
 Alpha virt. eigenvalues --    0.24914   0.25186   0.25661   0.25698   0.25791
 Alpha virt. eigenvalues --    0.26071   0.26251   0.26431   0.26903   0.26927
 Alpha virt. eigenvalues --    0.27401   0.27554   0.27764   0.28029   0.28402
 Alpha virt. eigenvalues --    0.28481   0.28843   0.28927   0.29268   0.29480
 Alpha virt. eigenvalues --    0.29814   0.29961   0.30450   0.30863   0.31090
 Alpha virt. eigenvalues --    0.31403   0.31757   0.31884   0.32132   0.32632
 Alpha virt. eigenvalues --    0.32941   0.33416   0.33458   0.33925   0.33980
 Alpha virt. eigenvalues --    0.34460   0.35036   0.35390   0.35506   0.35659
 Alpha virt. eigenvalues --    0.35953   0.36309   0.36621   0.37037   0.37626
 Alpha virt. eigenvalues --    0.37751   0.38037   0.38952   0.39576   0.39692
 Alpha virt. eigenvalues --    0.40080   0.40689   0.40911   0.41475   0.42233
 Alpha virt. eigenvalues --    0.42852   0.43009   0.43606   0.44004   0.44246
 Alpha virt. eigenvalues --    0.44971   0.45320   0.45798   0.46181   0.46503
 Alpha virt. eigenvalues --    0.46923   0.47351   0.48060   0.48352   0.49130
 Alpha virt. eigenvalues --    0.49425   0.49573   0.50158   0.50560   0.50814
 Alpha virt. eigenvalues --    0.51701   0.52250   0.52316   0.52939   0.54074
 Alpha virt. eigenvalues --    0.54186   0.54943   0.55212   0.55786   0.56016
 Alpha virt. eigenvalues --    0.56219   0.56408   0.56900   0.58226   0.58808
 Alpha virt. eigenvalues --    0.59083   0.59785   0.59952   0.60771   0.60928
 Alpha virt. eigenvalues --    0.61421   0.61887   0.62038   0.62591   0.62879
 Alpha virt. eigenvalues --    0.63370   0.63952   0.64129   0.64819   0.65148
 Alpha virt. eigenvalues --    0.65567   0.66470   0.66773   0.67034   0.67572
 Alpha virt. eigenvalues --    0.67612   0.68008   0.68388   0.68794   0.69059
 Alpha virt. eigenvalues --    0.69278   0.69877   0.70051   0.70349   0.70951
 Alpha virt. eigenvalues --    0.71029   0.71131   0.71638   0.71891   0.72212
 Alpha virt. eigenvalues --    0.72301   0.73205   0.73515   0.73814   0.74163
 Alpha virt. eigenvalues --    0.74312   0.74455   0.75753   0.76042   0.76555
 Alpha virt. eigenvalues --    0.76740   0.77010   0.77690   0.78071   0.78232
 Alpha virt. eigenvalues --    0.78463   0.78899   0.80004   0.81087   0.81349
 Alpha virt. eigenvalues --    0.81906   0.82438   0.83961   0.84355   0.85567
 Alpha virt. eigenvalues --    0.85876   0.86424   0.88016   0.88526   0.89294
 Alpha virt. eigenvalues --    0.90082   0.90766   0.91189   0.91575   0.92401
 Alpha virt. eigenvalues --    0.93358   0.94489   0.95504   0.95961   0.96461
 Alpha virt. eigenvalues --    0.97663   0.97787   0.98036   0.98226   0.98893
 Alpha virt. eigenvalues --    0.99676   1.00539   1.00796   1.01341   1.02010
 Alpha virt. eigenvalues --    1.02354   1.03214   1.03696   1.04298   1.05061
 Alpha virt. eigenvalues --    1.05335   1.06642   1.07305   1.07962   1.08933
 Alpha virt. eigenvalues --    1.09353   1.09662   1.10399   1.11151   1.11541
 Alpha virt. eigenvalues --    1.12585   1.13029   1.13272   1.15014   1.15361
 Alpha virt. eigenvalues --    1.15638   1.16021   1.16346   1.16803   1.17280
 Alpha virt. eigenvalues --    1.19308   1.19922   1.21547   1.22147   1.22684
 Alpha virt. eigenvalues --    1.23613   1.24548   1.25310   1.25823   1.26102
 Alpha virt. eigenvalues --    1.27325   1.28735   1.29386   1.30269   1.30339
 Alpha virt. eigenvalues --    1.31275   1.31779   1.33807   1.34022   1.35127
 Alpha virt. eigenvalues --    1.35868   1.37450   1.38033   1.40264   1.40904
 Alpha virt. eigenvalues --    1.41043   1.42645   1.42870   1.44169   1.44427
 Alpha virt. eigenvalues --    1.44530   1.45508   1.46361   1.46992   1.48290
 Alpha virt. eigenvalues --    1.49177   1.49393   1.50164   1.50460   1.51317
 Alpha virt. eigenvalues --    1.51998   1.52700   1.53676   1.54165   1.54989
 Alpha virt. eigenvalues --    1.55140   1.55557   1.55817   1.56334   1.56436
 Alpha virt. eigenvalues --    1.56593   1.57136   1.57604   1.58081   1.58627
 Alpha virt. eigenvalues --    1.58898   1.59566   1.59928   1.60437   1.60862
 Alpha virt. eigenvalues --    1.61129   1.61759   1.61871   1.62597   1.62804
 Alpha virt. eigenvalues --    1.63473   1.64389   1.64861   1.65606   1.66070
 Alpha virt. eigenvalues --    1.66678   1.67612   1.67843   1.68290   1.68711
 Alpha virt. eigenvalues --    1.69513   1.69928   1.70503   1.70700   1.70858
 Alpha virt. eigenvalues --    1.71279   1.72178   1.72629   1.72911   1.74123
 Alpha virt. eigenvalues --    1.74220   1.75474   1.75585   1.75961   1.76405
 Alpha virt. eigenvalues --    1.77917   1.78152   1.78793   1.79046   1.79669
 Alpha virt. eigenvalues --    1.79955   1.80174   1.80573   1.82070   1.82469
 Alpha virt. eigenvalues --    1.83459   1.83849   1.84163   1.84676   1.85889
 Alpha virt. eigenvalues --    1.86765   1.87544   1.87593   1.88199   1.88757
 Alpha virt. eigenvalues --    1.89563   1.89875   1.90233   1.91539   1.92707
 Alpha virt. eigenvalues --    1.93106   1.94118   1.94777   1.95950   1.96830
 Alpha virt. eigenvalues --    1.97059   1.97351   1.98231   1.99787   2.00918
 Alpha virt. eigenvalues --    2.01483   2.02900   2.04749   2.05481   2.06111
 Alpha virt. eigenvalues --    2.07910   2.08977   2.09504   2.10090   2.10969
 Alpha virt. eigenvalues --    2.12396   2.12873   2.13541   2.13930   2.14139
 Alpha virt. eigenvalues --    2.17033   2.17325   2.18600   2.19552   2.20032
 Alpha virt. eigenvalues --    2.20851   2.21307   2.21437   2.22283   2.22812
 Alpha virt. eigenvalues --    2.23040   2.24970   2.25487   2.26036   2.26458
 Alpha virt. eigenvalues --    2.28013   2.28740   2.29127   2.30054   2.30674
 Alpha virt. eigenvalues --    2.31861   2.32297   2.33868   2.35096   2.37148
 Alpha virt. eigenvalues --    2.38122   2.40524   2.40892   2.43998   2.45455
 Alpha virt. eigenvalues --    2.45640   2.47604   2.47797   2.48592   2.48791
 Alpha virt. eigenvalues --    2.49235   2.49599   2.50292   2.50582   2.51647
 Alpha virt. eigenvalues --    2.52429   2.52975   2.53507   2.54374   2.54889
 Alpha virt. eigenvalues --    2.55425   2.56863   2.57084   2.57346   2.58200
 Alpha virt. eigenvalues --    2.58664   2.59709   2.60302   2.61890   2.62660
 Alpha virt. eigenvalues --    2.63115   2.63747   2.64055   2.65366   2.65998
 Alpha virt. eigenvalues --    2.66298   2.67761   2.68251   2.68970   2.69235
 Alpha virt. eigenvalues --    2.69734   2.70365   2.70602   2.71142   2.71990
 Alpha virt. eigenvalues --    2.73142   2.73362   2.75144   2.75326   2.75781
 Alpha virt. eigenvalues --    2.76165   2.77476   2.77873   2.78539   2.78966
 Alpha virt. eigenvalues --    2.79482   2.79689   2.80520   2.81169   2.81929
 Alpha virt. eigenvalues --    2.82582   2.82934   2.83163   2.83853   2.84405
 Alpha virt. eigenvalues --    2.85189   2.85999   2.87109   2.88792   2.89475
 Alpha virt. eigenvalues --    2.89600   2.90147   2.90566   2.91046   2.91273
 Alpha virt. eigenvalues --    2.92213   2.94489   2.94966   2.96303   2.96772
 Alpha virt. eigenvalues --    2.97684   2.98598   3.00466   3.01801   3.03449
[...]
 0.00000020,0.,0.00000147,0.00000021,-0.00000198,-0.00000084,-0.0000000
 6,-0.00000100,-0.00000055,-0.00000021,0.00000013,0.00000015,-0.0000001
 0,0.00000016,0.00000017,0.00000014,0.00000058,0.00000020,-0.00000039,0
 .00000098,-0.00000018,0.00000116,-0.00000169,-0.00000010,-0.00000015,0
 .00000010,0.00000053,-0.00000014,0.00000004,-0.00000006,0.00000031,0.,
 0.00000004,-0.00000015,0.00000023,-0.00000348,-0.00000118,0.00000270,-
 0.00000117,0.00000022,0.00000239,0.00000341,0.00000136,-0.00000384,0.0
 0000384,-0.00000056,0.00000796,-0.00000102,0.00000049,-0.00000234,-0.0
 0000496,-0.00000080,0.00000073,0.00000166,-0.00000077,0.00000057,-0.00
 005935,-0.00001500,0.00002251,-0.00000269,-0.00001658,-0.00000614,0.00
 002235,-0.00006578,0.00001381,0.00004212,0.00003647,-0.00002324,-0.000
 03798,0.00000355,0.00002111,-0.00000274,-0.00000074,0.00000210,0.00000
 248,-0.00000200,0.00000299,0.00000763,0.00001697,-0.00001084,0.0000486
 0,0.00037909,-0.00056478,0.00033666,-0.00172693,-0.00002394,0.00021698
 ,-0.00015443,-0.00014748,0.00015791,0.00009176,0.00001423,-0.00008249,
 -0.00000333,-0.00004571,0.00007366,-0.00008774,0.00010747,-0.00008892,
 -0.00005863,-0.00016005,0.00000724,-0.00002298,0.00005251,-0.00481010,
 0.00348083,-0.01335301,-0.07319870,0.04644266,-0.05902865,0.00000218,-
 0.00000391,-0.00000052,0.00000102,-0.00000301,-0.00000013,-0.00000093,
 -0.00000012,0.00000003,0.,-0.00000333,-0.00000062,0.,-0.00000721,0.000
 00499,-0.00000175,-0.00000352,-0.00000013,-0.00028915,0.00005301,0.000
 20869,0.00002803,0.00001273,-0.00003402,-0.00001877,0.00000392,0.00000
 428,-0.00000348,-0.00000216,-0.00001088,-0.00000056,0.00000466,-0.0000
 0628,-0.00000345,0.00000727,-0.00000569,0.07398580,0.00000641,-0.00000
 162,-0.00000259,-0.00000072,0.00000495,0.00000139,0.00000551,0.0000034
 0,0.00000798,0.00000034,-0.00000147,-0.00000475,-0.00000783,-0.0000037
 2,-0.00000193,0.00000009,0.00000015,0.,-0.00000011,-0.00000009,-0.0000
 0008,0.00000010,-0.00000004,0.00000020,0.00000007,0.00000002,-0.000000
 07,-0.00000002,-0.00000003,0.00000004,0.00000009,0.00000003,0.00000002
 ,-0.00000023,0.00000004,-0.00000039,0.00000036,-0.00000056,0.00000007,
 0.00000003,0.00000010,-0.00000004,-0.00000005,0.00000009,-0.00000005,-
 0.00000013,-0.00000008,-0.00000001,0.00000002,0.00000003,0.00000002,0.
 00000116,0.00000079,-0.00000057,0.00000078,0.00000004,-0.00000054,-0.0
 0000172,-0.00000075,0.00000101,-0.00000255,-0.00000265,-0.00000231,-0.
 00000069,0.00000071,0.00000188,0.00000059,0.00000103,0.00000002,-0.000
 00039,-0.00000019,0.00000036,-0.00000422,-0.00002767,0.00000968,-0.000
 00713,-0.00002160,-0.00000970,0.00000924,-0.00003595,0.00000168,0.0000
 1332,0.00000357,0.00000561,0.00003475,0.00006719,0.00010704,-0.0000029
 3,-0.00000114,-0.00000157,-0.00000027,-0.00000320,0.00000114,0.0000027
 6,0.00000140,-0.00000683,-0.00031262,0.00076669,-0.00086988,-0.0014604
 1,-0.00264513,-0.00331098,-0.00002996,-0.00114898,-0.00000221,-0.00000
 869,0.00045990,-0.00001172,0.00005381,0.00013581,0.00010113,0.00002393
 ,-0.00044182,0.00012613,-0.00002763,0.00008960,-0.00008949,-0.00000429
 ,-0.00001859,-0.00000996,-0.01131223,0.01180939,-0.02893481,0.05180291
 ,-0.14882146,0.13699399,0.00000200,-0.00000143,0.00000145,0.00000096,-
 0.00000053,0.00000036,0.00000054,0.00000030,-0.00000028,0.00000004,-0.
 00000139,-0.00000067,-0.00000059,-0.00000088,0.00000123,-0.00000052,-0
 .00000127,0.00000047,0.00019374,0.00068496,0.00041001,-0.00001409,0.00
 000253,-0.00003229,0.00001162,0.00003923,0.00002464,-0.00000328,0.0000
 0275,-0.00000925,-0.00000168,-0.00000180,-0.00000359,-0.00000139,-0.00
 000156,-0.00000216,-0.04825060,0.15568559,0.00005991,-0.00001361,-0.00
 002562,-0.00003771,0.00001542,0.00002293,-0.00001306,0.00000757,-0.000
 02428,0.00000699,-0.00001505,0.00001142,-0.00000076,-0.00000041,0.0000
 0223,-0.00000027,-0.00000059,0.00000022,0.00000304,-0.00000106,-0.0000
 0167,-0.00000025,0.00000014,-0.00000062,-0.00000031,0.00000001,0.00000
 025,0.00000005,0.,-0.00000008,-0.00000057,0.00000037,-0.00000011,0.000
 00036,-0.00000067,0.00000144,0.00000189,0.00000133,-0.00000086,-0.0000
 0030,-0.00000046,0.00000011,0.00000032,0.00000011,-0.00000002,-0.00000
 006,0.00000075,0.00000033,-0.00000050,-0.00000041,-0.00000021,-0.00000
 736,-0.00000225,0.00000338,-0.00000327,0.00000108,0.00000284,0.0000073
 0,0.00000203,-0.00000513,-0.00000114,-0.00000574,0.00000517,-0.0000008
 2,0.00000237,0.00000064,-0.00000486,0.00000042,0.00000292,-0.00000086,
 0.00000078,-0.00000006,-0.00010044,-0.00002393,0.00006096,-0.00001954,
 -0.00005732,0.00001263,0.00006141,-0.00014965,0.00001307,0.00008276,0.
 00008525,-0.00005835,-0.00005691,0.00002658,0.00001441,-0.00000528,0.0
 0000133,0.00000224,0.00000622,-0.00000804,0.00000837,0.00001938,0.0000
 3848,-0.00002345,-0.00048901,0.00088281,-0.00105478,-0.00002785,-0.004
 00129,0.00065091,-0.00014950,-0.00026155,-0.00006641,0.00001466,0.0002
 0216,0.00017647,-0.00004286,-0.00002382,-0.00018105,0.00007995,-0.0001
 7578,0.00029074,-0.00015162,-0.00014652,-0.00040683,0.00004670,-0.0000
 5693,0.00011504,-0.01198886,0.00759020,-0.02992275,-0.05955044,0.12381
 727,-0.20959529,0.00000660,-0.00001386,0.00000353,0.00000192,-0.000008
 03,-0.00000166,-0.00000030,-0.00000036,-0.00000147,-0.00000016,-0.0000
 0780,-0.00000052,-0.00000322,-0.00001159,0.00000924,-0.00000410,-0.000
 00694,0.00000166,0.00020513,0.00006027,0.00012603,-0.00003092,0.000034
 51,-0.00003984,0.00000506,0.00000659,-0.00001194,-0.00001012,-0.000005
 64,-0.00002470,-0.00000258,0.00001604,-0.00001536,-0.00000681,0.000015
 03,-0.00001463,0.07227578,-0.12933613,0.23715266,0.00000235,-0.0000074
 3,-0.00000453,0.00001010,0.00000937,0.00001446,-0.00003562,0.00000998,
 -0.00006233,0.00001886,0.00001060,0.00000470,0.00002712,0.00000287,0.0
 0003395,-0.00000003,-0.00000017,-0.00000013,-0.00000147,-0.00000025,0.
 00000141,-0.00000040,-0.00000021,0.,0.00000003,0.00000006,0.00000004,0
 .00000018,0.,-0.00000006,-0.00000025,0.00000010,-0.00000056,0.00000066
 ,0.00000031,0.00000037,0.00000125,0.00000147,-0.00000102,0.00000005,-0
 .00000004,0.00000001,-0.00000011,-0.00000035,0.00000018,-0.00000014,-0
 .00000030,0.,0.00000008,0.00000020,0.00000006,0.00000182,-0.00000105,-
 0.00000044,0.00000087,-0.00000128,-0.00000094,-0.00000181,0.00000120,0
 .00000170,0.00000022,0.00000743,0.00001857,-0.00000653,-0.00000893,-0.
 00000277,0.00000091,0.00000007,-0.00000065,0.00000573,-0.00000200,-0.0
 0000261,-0.00002135,0.00001736,-0.00000312,-0.00001090,-0.00000194,0.0
 0000500,0.00002213,-0.00000452,0.00000556,-0.00000669,0.00002208,-0.00
 001961,0.00003581,-0.00003935,-0.00008279,-0.00000017,0.00000191,-0.00
 000147,0.00000036,0.00000049,-0.00000044,0.00000110,0.00000450,0.00000
 247,-0.00047221,-0.00022965,-0.00018556,0.00172094,-0.00032043,0.00061
 810,0.00009679,0.00108191,0.00055133,-0.00043563,-0.00036979,-0.000439
 36,0.00004032,0.00034246,0.00015142,-0.00001811,-0.00025331,0.00039342
 ,-0.00003269,-0.00008621,-0.00010967,0.00002459,-0.00000230,0.00001890
 ,0.01480733,-0.01078845,-0.00615468,-0.21235214,0.12218088,0.05565630,
 0.00000109,-0.00000251,0.00000065,-0.00000042,-0.00000075,-0.00000053,
 0.00000070,0.00000045,0.00000032,-0.00000040,0.,0.00000022,-0.00000089
 ,-0.00000148,0.00000037,-0.00000003,0.00000046,0.00000051,0.00027677,-
 0.00046922,-0.00057010,0.00003075,0.00000215,-0.00001046,0.00002909,-0
 .00001878,-0.00004412,-0.00000166,-0.00000006,-0.00000155,-0.00000354,
 0.00000137,-0.00000860,-0.00000535,0.00000358,-0.00000988,-0.00548359,
 0.00305731,0.00268211,0.21837999,0.00011900,-0.00004568,-0.00005345,-0
 .00005113,0.00008872,0.00007287,-0.00004849,-0.00002532,-0.00007781,0.
 00000556,-0.00001001,-0.00000281,0.00000729,-0.00001355,0.00003365,0.0
 0000029,-0.00000004,0.00000019,0.00000359,-0.00000250,-0.00000337,-0.0
 0000057,-0.00000002,-0.00000097,-0.00000077,-0.00000018,0.00000037,0.0
 0000006,0.00000010,0.00000004,-0.00000012,0.00000020,0.00000031,0.0000
 0104,-0.00000084,0.00000182,0.00000133,0.00000168,-0.00000309,0.000000
 03,-0.00000005,0.00000018,0.00000068,-0.00000045,-0.00000011,-0.000000
 43,0.00000087,0.00000049,-0.00000012,-0.00000011,0.00000007,-0.0000065
 6,-0.00000012,0.00000635,-0.00000287,0.00000284,0.00000475,0.00000554,
 -0.00000093,-0.00000701,-0.00000096,-0.00000561,0.00001079,-0.00000360
 ,0.00001061,0.00000197,-0.00000376,0.00000086,-0.00000016,0.00000640,0
 .00000072,0.00000088,-0.00021005,-0.00001802,0.00004994,-0.00001448,-0
 .00002449,0.00002645,0.00006682,-0.00019983,0.00003369,0.00013637,0.00
 016284,-0.00009175,-0.00005738,0.00007629,-0.00013400,-0.00000598,0.00
 000550,0.00000462,0.00001151,-0.00000876,0.00001141,0.00002970,0.00006
 913,-0.00003154,-0.00042588,0.00005420,-0.00056834,0.00178387,-0.00145
 208,0.00500497,-0.00053220,0.00080029,-0.00065860,0.00035311,0.0001030
 8,0.00043381,-0.00015155,-0.00016320,-0.00048250,-0.00002415,0.0002176
 8,0.00030333,-0.00011358,-0.00013630,-0.00029976,0.00004992,-0.0000375
 5,0.00010669,0.00968152,-0.02043497,-0.01926330,0.11790404,-0.13881671
 ,-0.03923730,0.00000567,-0.00001644,0.00000297,0.00000183,-0.00001340,
 -0.00000365,-0.00000244,-0.00000208,-0.00000254,-0.00000013,-0.0000109
 7,0.00000084,-0.00000219,-0.00001851,0.00001199,-0.00000716,-0.0000123
 1,0.00000122,-0.00012135,0.00005083,0.00066211,-0.00004177,0.00005178,
 -0.00004020,-0.00003062,-0.00000291,0.00000034,-0.00000686,-0.00001036
 ,-0.00001880,-0.00000509,0.00001643,-0.00000972,-0.00000004,0.00001400
 ,-0.00001573,0.01395229,-0.00874486,-0.00489242,-0.12931689,0.15670277
 ,0.00006390,-0.00002516,-0.00001844,-0.00002724,0.00004786,0.00001768,
 0.00000453,-0.00002145,0.00001079,-0.00001255,0.00000256,-0.00002546,-
 0.00001564,-0.00001138,0.00000025,0.00000037,0.00000017,-0.00000010,0.
 00000050,-0.00000240,0.00000064,0.00000043,0.00000014,0.00000048,-0.00
 000002,0.00000006,0.00000014,-0.00000004,0.00000009,-0.00000019,-0.000
 00101,0.,-0.00000096,0.00000047,0.00000040,0.00000004,0.00000274,-0.00
 000003,0.00000049,0.00000008,0.00000021,-0.00000001,0.00000005,-0.0000
 0008,-0.00000013,-0.00000032,0.00000013,0.00000038,-0.00000013,-0.0000
 0023,-0.00000035,-0.00000015,0.00000111,0.00000058,-0.00000028,0.00000
 151,0.00000046,-0.00000061,-0.00000165,0.00000034,-0.00000616,-0.00000
 148,-0.00000372,-0.00000121,0.00000376,0.00000512,0.00000264,0.0000015
 0,-0.00000005,0.00000002,0.00000123,-0.00000053,-0.00010974,-0.0000047
 3,0.00003976,-0.00000222,0.00000756,0.00001198,0.00003418,-0.00009647,
 0.00002026,0.00006162,0.00012652,-0.00005345,0.00004698,0.00012084,-0.
 00015144,-0.00000406,0.00000219,-0.00000210,0.00000628,-0.00000568,0.0
 0000493,0.00001373,0.00003634,-0.00001593,-0.00094432,-0.00031150,-0.0
 0121893,0.00356143,-0.00289332,0.00511086,0.00015250,0.00059380,0.0003
 5897,-0.00058919,0.00010542,-0.00038117,0.00011344,0.00068295,0.000078
 34,0.00000662,-0.00065375,0.00087478,-0.00003881,0.00004083,-0.0001390
 9,0.00002869,0.00000138,0.00000268,0.01288055,-0.02346108,-0.01860181,
 0.05045745,-0.03647821,-0.06794876,0.00000333,-0.00000945,0.00000246,0
 .00000119,-0.00000821,-0.00000191,-0.00000045,-0.00000098,-0.00000255,
 -0.00000072,-0.00000630,0.00000096,-0.00000105,-0.00000768,0.00000598,
 -0.00000486,-0.00000625,0.00000202,0.00060938,0.00074711,-0.00142800,0
 .00001309,-0.00000006,-0.00003343,0.00005989,0.00003214,-0.00000426,-0
 .00000341,-0.00000050,-0.00000745,-0.00000891,-0.00000377,-0.00001289,
 -0.00000496,-0.00000404,-0.00001484,-0.01868071,0.01390133,0.00916560,
 -0.05727554,0.05347654,0.07606726,0.00004306,-0.00000893,-0.00000957,-
 0.00003620,-0.00000011,-0.00000379,0.00000867,0.00001019,0.00001354,0.
 00000632,-0.00001323,0.00000973,-0.00000650,0.00000519,-0.00001806,-0.
 00000014,-0.00000039,0.00000021,0.00000239,-0.00000049,0.00000008,0.00
 000038,0.00000017,0.00000020,0.00000017,0.00000006,0.00000009,-0.00000
 018,0.00000004,-0.00000015,-0.00000008,0.00000036,-0.00000013,-0.00000
 027,-0.00000011,0.00000010,0.00000132,0.00000030,0.00000127,-0.0000002
 6,-0.00000033,0.00000002,-0.00000009,0.00000059,-0.00000037,0.00000019
 ,0.00000039,0.00000048,-0.00000072,-0.00000028,-0.00000047,-0.00000553
 ,-0.00000148,0.00000032,-0.00000264,0.00000102,0.00000102,0.00000570,0
 .00000111,-0.00000247,-0.00000160,-0.00000038,-0.00000328,0.00000134,-
 0.00000054,0.00000069,-0.00000374,-0.00000046,0.00000274,-0.00000492,0
 .00000022,-0.00000077,-0.00005167,0.00000258,0.00006157,0.00000352,-0.
 00000729,0.00000654,0.00002788,-0.00007125,0.00001084,0.00004553,0.000
 06587,-0.00005398,-0.00009912,0.00012495,-0.00003794,-0.00000339,0.000
 00015,-0.00000514,0.00000468,-0.00000517,0.00000652,0.00001130,0.00002
 863,-0.00001542,-0.00033976,-0.00004327,-0.00078022,0.00132846,-0.0019
 1601,0.00348982,-0.00024910,-0.00031335,-0.00022635,0.00010277,0.00034
 420,-0.00000002,-0.00005149,0.00022310,-0.00004607,0.00018310,-0.00026
 877,0.00029995,-0.00001534,0.00007137,-0.00004637,-0.00000438,0.000002
 69,0.00000185,-0.00663986,-0.00969095,-0.00754929,-0.20963132,-0.10628
 479,0.07414374,0.00000172,-0.00000684,0.00000253,0.00000192,-0.0000069
 1,-0.00000143,-0.00000078,-0.00000069,-0.00000176,0.00000018,-0.000004
 97,0.00000013,-0.00000079,-0.00000600,0.00000439,-0.00000270,-0.000005
 81,0.00000028,-0.00067020,0.00089536,-0.00031963,-0.00000024,0.0000020
 1,-0.00002573,0.00001011,0.00003556,0.00003082,-0.00000188,-0.00000122
 ,-0.00000616,-0.00000252,-0.00000445,-0.00000428,0.00000028,-0.0000021
 9,-0.00000323,0.00915297,0.00623447,-0.00285490,-0.01664584,-0.0129383
 2,0.00960822,0.22352927,0.00010927,-0.00002858,-0.00003749,-0.00006424
 ,0.00004180,0.00003707,-0.00000880,0.00000276,-0.00002279,0.00001148,-
 0.00001818,0.00001000,-0.00001417,-0.00000617,-0.00000861,-0.00000024,
 -0.00000058,0.00000036,0.00000508,-0.00000195,-0.00000236,0.00000003,0
 .00000014,-0.00000019,-0.00000017,0.00000002,0.00000030,-0.00000015,0.
 00000012,-0.00000015,-0.00000074,0.00000032,-0.00000030,0.00000044,-0.
 00000073,0.00000165,0.00000128,0.00000111,-0.00000029,-0.00000033,-0.0
 0000063,0.00000023,0.00000031,0.00000060,-0.00000050,0.00000016,0.0000
 0111,0.00000069,-0.00000085,-0.00000045,-0.00000050,-0.00000998,-0.000
 00175,0.00000438,-0.00000469,0.00000243,0.00000389,0.00001001,0.000001
 17,-0.00000684,-0.00000302,-0.00000723,0.00000112,-0.00000180,0.000005
 76,0.00000214,-0.00000539,0.00000043,0.00000336,-0.00000318,0.00000148
 ,0.00000076,-0.00014314,-0.00000164,0.00011505,-0.00001475,-0.00005770
 ,0.00003326,0.00008347,-0.00018234,0.00001482,0.00011344,0.00015241,-0
 .00013105,-0.00022901,0.00009468,-0.00012439,-0.00000341,0.00000561,0.
 00000491,0.00001037,-0.00000603,0.00001309,0.00003059,0.00006694,-0.00
 002833,-0.00008459,-0.00001838,-0.00068150,0.00208540,-0.00142332,0.00
 483784,-0.00003367,0.00078880,-0.00077320,0.00008923,0.00009457,0.0005
 2959,-0.00023613,-0.00016329,-0.00044079,0.00021600,0.00021632,0.00020
 836,-0.00012877,-0.00013405,-0.00029253,0.00002867,-0.00003577,0.00011
 198,-0.02188945,-0.01928716,-0.00625994,-0.10518293,-0.12171191,0.0508
 0765,0.00000641,-0.00001858,0.00000513,0.00000257,-0.00001441,-0.00000
 447,-0.00000140,-0.00000137,-0.00000330,-0.00000006,-0.00001053,0.0000
 0065,-0.00000408,-0.00001639,0.00001043,-0.00000660,-0.00001107,0.0000
 0158,0.00060040,-0.00002499,0.00045709,0.00000573,0.00004938,-0.000057
 95,0.00002280,-0.00000446,-0.00002271,-0.00000924,-0.00001008,-0.00001
 760,-0.00000600,0.00001517,-0.00000806,-0.00000121,0.00001579,-0.00001
 502,-0.01406241,-0.00782979,0.00641896,0.01516711,0.01179775,-0.005919
 84,0.12355437,0.13767286,0.00005061,-0.00001778,-0.00002363,-0.0000198
 9,0.00003180,0.00003066,-0.00001229,-0.00000552,-0.00002096,0.00000256
 ,-0.00001536,0.00000005,0.00000616,0.00000344,0.00001010,-0.00000013,-
 0.00000003,0.00000007,0.00000078,0.00000175,-0.00000324,-0.00000031,0.
 00000025,-0.00000054,-0.00000037,-0.00000019,0.00000006,-0.00000002,0.
 ,0.00000020,0.00000126,-0.00000061,0.00000062,-0.00000016,-0.00000052,
 0.00000015,-0.00000267,-0.00000094,-0.00000129,0.00000006,-0.00000009,
 0.00000012,0.00000050,0.00000004,-0.00000015,-0.00000002,0.00000018,0.
 00000018,0.00000019,0.00000019,0.00000033,-0.00000088,0.00000108,0.000
 00210,-0.00000017,0.00000047,0.00000116,0.00000078,-0.00000072,-0.0000
 0220,0.00000071,0.00000143,0.00000152,-0.00000255,0.00000254,-0.000000
 21,-0.00000216,-0.00000011,-0.00000033,0.00000129,-0.00000055,0.000001
 08,-0.00004437,0.00004913,0.00005009,-0.00000831,-0.00001066,0.0000134
 1,0.00002642,-0.00005950,0.00000082,0.00005457,0.00009214,-0.00005693,
 -0.00022261,0.00006876,-0.00009019,0.00000075,0.00000136,-0.00000111,0
 .00000324,-0.00000060,0.00000685,0.00000789,0.00002359,-0.00001533,0.0
 0001390,-0.00047901,-0.00138148,-0.00014262,-0.00213649,0.00538077,0.0
 0026457,0.00121601,0.00038242,0.00011654,-0.00022265,-0.00094311,0.000
 07617,0.00072446,0.00018773,0.00056144,-0.00067544,0.00065301,-0.00008
 367,-0.00001602,-0.00014352,-0.00002228,0.00000524,0.00002818,-0.02722
 621,-0.02206111,0.00161989,0.07966279,0.05538582,-0.08795496,0.0000023
 8,-0.00000700,0.00000116,0.00000180,-0.00000498,-0.00000063,-0.0000010
 7,-0.00000016,-0.00000024,0.00000051,-0.00000356,-0.00000042,-0.000002
 40,-0.00000802,0.00000564,-0.00000147,-0.00000571,-0.00000013,-0.00147
 531,0.00030933,-0.00073214,-0.00003895,0.00000233,0.00000148,-0.000066
 60,0.00001331,0.00001790,-0.00000214,0.00000092,-0.00000647,-0.0000010
 3,-0.00000145,-0.00001027,-0.00000486,-0.00000440,-0.00001719,0.019376
 99,0.01094595,-0.00637973,0.00483138,0.00563328,-0.00171631,-0.0756807
 2,-0.04877562,0.09110493\\0.00001203,-0.00000665,0.00000406,-0.0000055
 5,0.00000495,-0.00000132,0.00000309,0.00000067,0.00000417,-0.00000025,
 0.00000099,-0.00000140,0.00000020,0.00000083,-0.00000247,-0.00000058,-
 0.00000090,0.00000357,-0.00000061,-0.00000013,0.00000164,0.00000046,-0
 .00000117,0.00000120,0.00000059,-0.00000104,0.00000260,-0.00000045,-0.
 00000125,0.00000290,0.00000158,-0.00000239,0.00000107,-0.00000014,-0.0
 0000085,0.00000155,-0.00000318,-0.00000138,-0.00000244,0.00000033,-0.0
 0000128,0.00000345,0.00000056,0.00000023,0.00000260,-0.00000148,-0.000
 00131,0.00000146,-0.00000137,0.00000008,0.00000315,-0.00000165,-0.0000
 0098,0.00000047,-0.00000067,0.00000061,0.00000308,0.00000185,-0.000002
 83,0.00000250,0.00000277,0.00000052,0.00000132,0.00000019,-0.00000029,
 0.00000024,0.00000019,0.00000116,0.00000094,0.00000011,-0.00000053,0.0
 0000090,-0.00000276,0.00000199,-0.00000104,0.00000135,0.00000025,0.000
 00288,0.00000182,0.00000099,0.00000677,-0.00000613,0.00000576,-0.00000
 560,0.00000386,-0.00000256,-0.00000356,-0.00000150,-0.00000043,-0.0000
 0389,0.00000199,0.00000136,0.00000240,0.00000012,-0.00000246,-0.000005
 51,-0.00000301,0.00000006,-0.00000272,-0.00000105,-0.00000064,-0.00000
 028,-0.00000028,0.00000258,-0.00000331,-0.00000064,0.00000037,-0.00000
 076,-0.00000219,-0.00000128,-0.00000135,0.00000085,-0.00000042,-0.0000
 0224,-0.00000367,0.00000048,-0.00000045,-0.00000015,-0.00000174,0.0000
 0206,0.00000344,0.00000119,-0.00000264,-0.00000051,0.00000084,-0.00000
 272,0.00000045,0.00000098,0.00000009,0.00000124,0.00000079,-0.00000019
 ,0.00000020,0.00000079,-0.00000039,0.00000087,0.00000067,-0.00000047,0
 .00000314,0.00000090,0.00000071,0.00000094,0.00000059,0.00000211,-0.00
 000073,0.00000042,-0.00000167,-0.00000150,0.,-0.00000284,-0.00000198,-
 0.00000006,-0.00000154,-0.00000157,-0.00000103,-0.00000085,-0.00000198
 ,-0.00000048,-0.00000179,-0.00000198,-0.00000104,-0.00000060,0.0000007
 7,0.00000172,-0.00000174,0.00000160,0.00000131,-0.00000170,0.00000097,
 0.00000104,-0.00000240\\\@


 AND THIS OUR LIFE, EXEMPT FROM PUBLIC HAUNT,
 FINDS TONGUES IN TREES, BOOKS IN THE RUNNING BROOKS,
 SERMONS IN STONES, AND GOOD IN EVERYTHING.
 I WOULD NOT CHANGE IT. -- W. SHAKESPEARE
 AS YOU LIKE IT, ACT II, SCENE 1.
 Job cpu time:      10 days 18 hours 42 minutes 30.6 seconds.
 File lengths (MBytes):  RWF=   5798 Int=      0 D2E=      0 Chk=     62 Scr=      1
 Normal termination of Gaussian 09 at Fri Nov 19 01:03:07 2021.
