 Entering Gaussian System, Link 0=g09
 Input=reag_NHC33_et.gjf
 Output=reag_NHC33_et.log
 Initial command:
 /usr/local/gqt/g09/l1.exe "/usr/local/gqt/lixogaussian/Gau-11263.inp" -scrdir="/usr/local/gqt/lixogaussian/"
 Entering Link 1 = /usr/local/gqt/g09/l1.exe PID=     11265.
  
 Copyright (c) 1988,1990,1992,1993,1995,1998,2003,2009,2013,
            Gaussian, Inc.  All Rights Reserved.
  
 This is part of the Gaussian(R) 09 program.  It is based on
 the Gaussian(R) 03 system (copyright 2003, Gaussian, Inc.),
 the Gaussian(R) 98 system (copyright 1998, Gaussian, Inc.),
 the Gaussian(R) 94 system (copyright 1995, Gaussian, Inc.),
 the Gaussian 92(TM) system (copyright 1992, Gaussian, Inc.),
 the Gaussian 90(TM) system (copyright 1990, Gaussian, Inc.),
 the Gaussian 88(TM) system (copyright 1988, Gaussian, Inc.),
 the Gaussian 86(TM) system (copyright 1986, Carnegie Mellon
 University), and the Gaussian 82(TM) system (copyright 1983,
 Carnegie Mellon University). Gaussian is a federally registered
 trademark of Gaussian, Inc.
  
 This software contains proprietary and confidential information,
 including trade secrets, belonging to Gaussian, Inc.
  
 This software is provided under written license and may be
 used, copied, transmitted, or stored only in accord with that
 written license.
  
 The following legend is applicable only to US Government
 contracts under FAR:
  
                    RESTRICTED RIGHTS LEGEND
  
 Use, reproduction and disclosure by the US Government is
 subject to restrictions as set forth in subparagraphs (a)
 and (c) of the Commercial Computer Software - Restricted
 Rights clause in FAR 52.227-19.
  
 Gaussian, Inc.
 340 Quinnipiac St., Bldg. 40, Wallingford CT 06492
  
  
 ---------------------------------------------------------------
 Warning -- This program may not be used in any manner that
 competes with the business of Gaussian, Inc. or will provide
 assistance to any competitor of Gaussian, Inc.  The licensee
 of this program is prohibited from giving any competitor of
 Gaussian, Inc. access to this program.  By using this program,
 the user acknowledges that Gaussian, Inc. is engaged in the
 business of creating and licensing software in the field of
 computational chemistry and represents and warrants to the
 licensee that it is not a competitor of Gaussian, Inc. and that
 it will not use this program in any manner prohibited above.
 ---------------------------------------------------------------
  

 Cite this work as:
 Gaussian 09, Revision D.01,
 M. J. Frisch, G. W. Trucks, H. B. Schlegel, G. E. Scuseria, 
 M. A. Robb, J. R. Cheeseman, G. Scalmani, V. Barone, B. Mennucci, 
 G. A. Petersson, H. Nakatsuji, M. Caricato, X. Li, H. P. Hratchian, 
 A. F. Izmaylov, J. Bloino, G. Zheng, J. L. Sonnenberg, M. Hada, 
 M. Ehara, K. Toyota, R. Fukuda, J. Hasegawa, M. Ishida, T. Nakajima, 
 Y. Honda, O. Kitao, H. Nakai, T. Vreven, J. A. Montgomery, Jr., 
 J. E. Peralta, F. Ogliaro, M. Bearpark, J. J. Heyd, E. Brothers, 
 K. N. Kudin, V. N. Staroverov, T. Keith, R. Kobayashi, J. Normand, 
 K. Raghavachari, A. Rendell, J. C. Burant, S. S. Iyengar, J. Tomasi, 
 M. Cossi, N. Rega, J. M. Millam, M. Klene, J. E. Knox, J. B. Cross, 
 V. Bakken, C. Adamo, J. Jaramillo, R. Gomperts, R. E. Stratmann, 
 O. Yazyev, A. J. Austin, R. Cammi, C. Pomelli, J. W. Ochterski, 
 R. L. Martin, K. Morokuma, V. G. Zakrzewski, G. A. Voth, 
 P. Salvador, J. J. Dannenberg, S. Dapprich, A. D. Daniels, 
 O. Farkas, J. B. Foresman, J. V. Ortiz, J. Cioslowski, 
 and D. J. Fox, Gaussian, Inc., Wallingford CT, 2013.
 
 ******************************************
 Gaussian 09:  ES64L-G09RevD.01 24-Apr-2013
                18-Dec-2021 
 ******************************************
 %nprocshared=16
 Will use up to   16 processors via shared memory.
 %mem=50GB
 %chk=reag_NHC33_et.chk
 ------------------------------------------------------------
 #p opt freq n12sx/6-311+g(d,p) scrf=(iefpcm,solvent=ethanol)
 ------------------------------------------------------------
 1/14=-1,18=20,19=15,26=3,38=1/1,3;
 2/9=110,12=2,17=6,18=5,40=1/2;
 3/5=4,6=6,7=111,11=2,16=1,25=1,30=1,70=2201,71=1,72=4,74=-69/1,2,3;
 4//1;
 5/5=2,38=5,53=4/2;
 6/7=2,8=2,9=2,10=2,28=1/1;
 7//1,2,3,16;
 1/14=-1,18=20,19=15,26=3/3(2);
 2/9=110/2;
 99//99;
 2/9=110/2;
 3/5=4,6=6,7=111,11=2,16=1,25=1,30=1,70=2205,71=1,72=4,74=-69/1,2,3;
 4/5=5,16=3,69=1/1;
 5/5=2,38=5,53=4/2;
 7//1,2,3,16;
 1/14=-1,18=20,19=15,26=3/3(-5);
 2/9=110/2;
 6/7=2,8=2,9=2,10=2,19=2,28=1/1;
 99/9=1/99;
 Leave Link    1 at Sat Dec 18 08:53:30 2021, MaxMem=  6710886400 cpu:         0.8
 (Enter /usr/local/gqt/g09/l101.exe)
 -----
 TITLE
 -----
 Symbolic Z-matrix:
 Charge =  0 Multiplicity = 1
 1                    -0.37611   0.3208    0.52245 
 8                    -1.34694   0.44768   0.69052 
 6                    -1.55721   0.66336   2.06538 
 1                    -1.1507   -0.16765   2.65162 
 1                    -1.03804   1.56948   2.39665 
 6                    -6.14386   0.77042  -0.5488 
 6                    -3.84375  -0.8129   -1.26472 
 6                    -5.02634   1.34402  -1.40374 
 1                    -6.48255   1.46246   0.21777 
 1                    -7.01598   0.55572  -1.17087 
 6                    -4.39464   0.22405  -2.20794 
 1                    -3.52774  -1.7123   -1.78378 
 1                    -3.0042   -0.41906  -0.6933 
 1                    -5.42273   2.12324  -2.05081 
 1                    -4.26984   1.80868  -0.77037 
 1                    -3.57537   0.58976  -2.82462 
 1                    -5.13126  -0.22269  -2.87744 
 8                    -4.8192   -1.27338  -0.29999 
 8                    -6.50741  -0.95618   1.04573 
 6                    -5.83108  -0.53148   0.13849 
 6                    -3.03571   0.7987    2.34108 
 1                    -3.21477   0.97079   3.40129 
 1                    -3.45544   1.63641   1.78558 
 1                    -3.56591  -0.10598   2.0484 
 8                     3.40052  -0.42736  -0.94796 
 6                     3.28066   0.83862  -1.2492 
 7                     2.11635   1.27175  -0.76934 
 6                     1.40909   0.25981  -0.08511 
 6                     2.26181  -0.79492  -0.22979 
 6                     2.20664  -2.17352   0.20983 
 6                     1.0985   -2.62415   0.93459 
 6                     1.0264   -3.93603   1.36578 
 6                     2.05541  -4.82734   1.08471 
 6                     3.15815  -4.38901   0.36602 
 6                     3.2368   -3.0755   -0.06882 
 6                     4.34464   1.50302  -1.97143 
 6                     4.57958   2.8756   -1.85619 
 6                     5.62944   3.45629  -2.54477 
 6                     6.45195   2.68434  -3.35337 
 6                     6.22767   1.31876  -3.4651 
 6                     5.18511   0.72741  -2.77679 
 1                     0.29985  -1.93186   1.15203 
 1                     0.16294  -4.26658   1.92419 
 1                     1.99674  -5.85109   1.42257 
 1                     3.964    -5.07229   0.14179 
 1                     4.1001   -2.74621  -0.6259 
 1                     3.95947   3.48446  -1.21938 
 1                     5.80875   4.5158   -2.44422 
 1                     7.26727   3.14442  -3.89082 
 1                     6.8658    0.71331  -4.09043 
 1                     5.01043  -0.33327  -2.86397 
 6                     1.5708    2.57692  -0.96538 
 6                     1.26923   3.0154   -2.24484 
 6                     1.31505   3.36925   0.14153 
 6                     0.71847   4.27611  -2.41585 
 6                     0.76421   4.62788  -0.03871 
 6                     0.46791   5.08372  -1.31584 
 1                     1.45988   2.37702  -3.09401 
 1                     1.54694   2.99811   1.12748 
 1                     0.47975   4.6226   -3.4098 
 1                     0.56663   5.25168   0.81973 
 1                     0.03748   6.06413  -1.45293 
 
 Add virtual bond connecting atoms C28        and H1         Dist= 3.57D+00.
 Add virtual bond connecting atoms H13        and O2         Dist= 4.40D+00.
 NAtoms=     62 NQM=       62 NQMF=       0 NMMI=      0 NMMIF=      0
                NMic=       0 NMicF=      0.
                    Isotopes and Nuclear Properties:
 (Nuclear quadrupole moments (NQMom) in fm**2, nuclear magnetic moments (NMagM)
  in nuclear magnetons)

  Atom         1           2           3           4           5           6           7           8           9          10
 IAtWgt=           1          16          12           1           1          12          12          12           1           1
 AtmWgt=   1.0078250  15.9949146  12.0000000   1.0078250   1.0078250  12.0000000  12.0000000  12.0000000   1.0078250   1.0078250
 NucSpn=           1           0           0           1           1           0           0           0           1           1
 AtZEff=   0.0000000   0.0000000   0.0000000   0.0000000   0.0000000   0.0000000   0.0000000   0.0000000   0.0000000   0.0000000
 NQMom=    0.0000000   0.0000000   0.0000000   0.0000000   0.0000000   0.0000000   0.0000000   0.0000000   0.0000000   0.0000000
 NMagM=    2.7928460   0.0000000   0.0000000   2.7928460   2.7928460   0.0000000   0.0000000   0.0000000   2.7928460   2.7928460
 AtZNuc=   1.0000000   8.0000000   6.0000000   1.0000000   1.0000000   6.0000000   6.0000000   6.0000000   1.0000000   1.0000000

  Atom        11          12          13          14          15          16          17          18          19          20
 IAtWgt=          12           1           1           1           1           1           1          16          16          12
 AtmWgt=  12.0000000   1.0078250   1.0078250   1.0078250   1.0078250   1.0078250   1.0078250  15.9949146  15.9949146  12.0000000
 NucSpn=           0           1           1           1           1           1           1           0           0           0
 AtZEff=   0.0000000   0.0000000   0.0000000   0.0000000   0.0000000   0.0000000   0.0000000   0.0000000   0.0000000   0.0000000
 NQMom=    0.0000000   0.0000000   0.0000000   0.0000000   0.0000000   0.0000000   0.0000000   0.0000000   0.0000000   0.0000000
 NMagM=    0.0000000   2.7928460   2.7928460   2.7928460   2.7928460   2.7928460   2.7928460   0.0000000   0.0000000   0.0000000
 AtZNuc=   6.0000000   1.0000000   1.0000000   1.0000000   1.0000000   1.0000000   1.0000000   8.0000000   8.0000000   6.0000000

  Atom        21          22          23          24          25          26          27          28          29          30
 IAtWgt=          12           1           1           1          16          12          14          12          12          12
 AtmWgt=  12.0000000   1.0078250   1.0078250   1.0078250  15.9949146  12.0000000  14.0030740  12.0000000  12.0000000  12.0000000
 NucSpn=           0           1           1           1           0           0           2           0           0           0
 AtZEff=   0.0000000   0.0000000   0.0000000   0.0000000   0.0000000   0.0000000   0.0000000   0.0000000   0.0000000   0.0000000
 NQMom=    0.0000000   0.0000000   0.0000000   0.0000000   0.0000000   0.0000000   2.0440000   0.0000000   0.0000000   0.0000000
 NMagM=    0.0000000   2.7928460   2.7928460   2.7928460   0.0000000   0.0000000   0.4037610   0.0000000   0.0000000   0.0000000
 AtZNuc=   6.0000000   1.0000000   1.0000000   1.0000000   8.0000000   6.0000000   7.0000000   6.0000000   6.0000000   6.0000000

  Atom        31          32          33          34          35          36          37          38          39          40
 IAtWgt=          12          12          12          12          12          12          12          12          12          12
 AtmWgt=  12.0000000  12.0000000  12.0000000  12.0000000  12.0000000  12.0000000  12.0000000  12.0000000  12.0000000  12.0000000
 NucSpn=           0           0           0           0           0           0           0           0           0           0
 AtZEff=   0.0000000   0.0000000   0.0000000   0.0000000   0.0000000   0.0000000   0.0000000   0.0000000   0.0000000   0.0000000
 NQMom=    0.0000000   0.0000000   0.0000000   0.0000000   0.0000000   0.0000000   0.0000000   0.0000000   0.0000000   0.0000000
 NMagM=    0.0000000   0.0000000   0.0000000   0.0000000   0.0000000   0.0000000   0.0000000   0.0000000   0.0000000   0.0000000
 AtZNuc=   6.0000000   6.0000000   6.0000000   6.0000000   6.0000000   6.0000000   6.0000000   6.0000000   6.0000000   6.0000000

  Atom        41          42          43          44          45          46          47          48          49          50
 IAtWgt=          12           1           1           1           1           1           1           1           1           1
 AtmWgt=  12.0000000   1.0078250   1.0078250   1.0078250   1.0078250   1.0078250   1.0078250   1.0078250   1.0078250   1.0078250
 NucSpn=           0           1           1           1           1           1           1           1           1           1
 AtZEff=   0.0000000   0.0000000   0.0000000   0.0000000   0.0000000   0.0000000   0.0000000   0.0000000   0.0000000   0.0000000
 NQMom=    0.0000000   0.0000000   0.0000000   0.0000000   0.0000000   0.0000000   0.0000000   0.0000000   0.0000000   0.0000000
 NMagM=    0.0000000   2.7928460   2.7928460   2.7928460   2.7928460   2.7928460   2.7928460   2.7928460   2.7928460   2.7928460
 AtZNuc=   6.0000000   1.0000000   1.0000000   1.0000000   1.0000000   1.0000000   1.0000000   1.0000000   1.0000000   1.0000000

  Atom        51          52          53          54          55          56          57          58          59          60
 IAtWgt=           1          12          12          12          12          12          12           1           1           1
 AtmWgt=   1.0078250  12.0000000  12.0000000  12.0000000  12.0000000  12.0000000  12.0000000   1.0078250   1.0078250   1.0078250
 NucSpn=           1           0           0           0           0           0           0           1           1           1
 AtZEff=   0.0000000   0.0000000   0.0000000   0.0000000   0.0000000   0.0000000   0.0000000   0.0000000   0.0000000   0.0000000
 NQMom=    0.0000000   0.0000000   0.0000000   0.0000000   0.0000000   0.0000000   0.0000000   0.0000000   0.0000000   0.0000000
 NMagM=    2.7928460   0.0000000   0.0000000   0.0000000   0.0000000   0.0000000   0.0000000   2.7928460   2.7928460   2.7928460
 AtZNuc=   1.0000000   6.0000000   6.0000000   6.0000000   6.0000000   6.0000000   6.0000000   1.0000000   1.0000000   1.0000000

  Atom        61          62
 IAtWgt=           1           1
 AtmWgt=   1.0078250   1.0078250
 NucSpn=           1           1
 AtZEff=   0.0000000   0.0000000
 NQMom=    0.0000000   0.0000000
 NMagM=    2.7928460   2.7928460
 AtZNuc=   1.0000000   1.0000000
 Leave Link  101 at Sat Dec 18 08:53:30 2021, MaxMem=  6710886400 cpu:         7.2
 (Enter /usr/local/gqt/g09/l103.exe)

 GradGradGradGradGradGradGradGradGradGradGradGradGradGradGradGradGradGrad
 Berny optimization.
 Initialization pass.
                           ----------------------------
                           !    Initial Parameters    !
                           ! (Angstroms and Degrees)  !
 --------------------------                            --------------------------
 ! Name  Definition              Value          Derivative Info.                !
 --------------------------------------------------------------------------------
 ! R1    R(1,2)                  0.9934         estimate D2E/DX2                !
 ! R2    R(1,28)                 1.8867         estimate D2E/DX2                !
 ! R3    R(2,3)                  1.4075         estimate D2E/DX2                !
 ! R4    R(2,13)                 2.3265         estimate D2E/DX2                !
 ! R5    R(3,4)                  1.0952         estimate D2E/DX2                !
 ! R6    R(3,5)                  1.0956         estimate D2E/DX2                !
 ! R7    R(3,21)                 1.5101         estimate D2E/DX2                !
 ! R8    R(6,8)                  1.5195         estimate D2E/DX2                !
 ! R9    R(6,9)                  1.0869         estimate D2E/DX2                !
 ! R10   R(6,10)                 1.0925         estimate D2E/DX2                !
 ! R11   R(6,20)                 1.505          estimate D2E/DX2                !
 ! R12   R(7,11)                 1.5061         estimate D2E/DX2                !
 ! R13   R(7,12)                 1.0855         estimate D2E/DX2                !
 ! R14   R(7,13)                 1.0893         estimate D2E/DX2                !
 ! R15   R(7,18)                 1.4472         estimate D2E/DX2                !
 ! R16   R(8,11)                 1.5166         estimate D2E/DX2                !
 ! R17   R(8,14)                 1.0877         estimate D2E/DX2                !
 ! R18   R(8,15)                 1.0906         estimate D2E/DX2                !
 ! R19   R(11,16)                1.0887         estimate D2E/DX2                !
 ! R20   R(11,17)                1.0911         estimate D2E/DX2                !
 ! R21   R(18,20)                1.3291         estimate D2E/DX2                !
 ! R22   R(19,20)                1.2087         estimate D2E/DX2                !
 ! R23   R(21,22)                1.0889         estimate D2E/DX2                !
 ! R24   R(21,23)                1.0893         estimate D2E/DX2                !
 ! R25   R(21,24)                1.0887         estimate D2E/DX2                !
 ! R26   R(25,26)                1.3068         estimate D2E/DX2                !
 ! R27   R(25,29)                1.3955         estimate D2E/DX2                !
 ! R28   R(26,27)                1.3317         estimate D2E/DX2                !
 ! R29   R(26,36)                1.4474         estimate D2E/DX2                !
 ! R30   R(27,28)                1.4115         estimate D2E/DX2                !
 ! R31   R(27,52)                1.4281         estimate D2E/DX2                !
 ! R32   R(28,29)                1.364          estimate D2E/DX2                !
 ! R33   R(29,30)                1.448          estimate D2E/DX2                !
 ! R34   R(30,31)                1.3987         estimate D2E/DX2                !
 ! R35   R(30,35)                1.3973         estimate D2E/DX2                !
 ! R36   R(31,32)                1.3828         estimate D2E/DX2                !
 ! R37   R(31,42)                1.0791         estimate D2E/DX2                !
 ! R38   R(32,33)                1.3901         estimate D2E/DX2                !
 ! R39   R(32,43)                1.0801         estimate D2E/DX2                !
 ! R40   R(33,34)                1.3873         estimate D2E/DX2                !
 ! R41   R(33,44)                1.0797         estimate D2E/DX2                !
 ! R42   R(34,35)                1.3858         estimate D2E/DX2                !
 ! R43   R(34,45)                1.0801         estimate D2E/DX2                !
 ! R44   R(35,46)                1.0789         estimate D2E/DX2                !
 ! R45   R(36,37)                1.3973         estimate D2E/DX2                !
 ! R46   R(36,41)                1.3988         estimate D2E/DX2                !
 ! R47   R(37,38)                1.3833         estimate D2E/DX2                !
 ! R48   R(37,47)                1.0774         estimate D2E/DX2                !
 ! R49   R(38,39)                1.3879         estimate D2E/DX2                !
 ! R50   R(38,48)                1.0793         estimate D2E/DX2                !
 ! R51   R(39,40)                1.3884         estimate D2E/DX2                !
 ! R52   R(39,49)                1.0795         estimate D2E/DX2                !
 ! R53   R(40,41)                1.3822         estimate D2E/DX2                !
 ! R54   R(40,50)                1.0793         estimate D2E/DX2                !
 ! R55   R(41,51)                1.0785         estimate D2E/DX2                !
 ! R56   R(52,53)                1.3857         estimate D2E/DX2                !
 ! R57   R(52,54)                1.3851         estimate D2E/DX2                !
 ! R58   R(53,55)                1.3863         estimate D2E/DX2                !
 ! R59   R(53,58)                1.0793         estimate D2E/DX2                !
 ! R60   R(54,56)                1.3857         estimate D2E/DX2                !
 ! R61   R(54,59)                1.0787         estimate D2E/DX2                !
 ! R62   R(55,57)                1.3875         estimate D2E/DX2                !
 ! R63   R(55,60)                1.0793         estimate D2E/DX2                !
 ! R64   R(56,57)                1.388          estimate D2E/DX2                !
 ! R65   R(56,61)                1.0794         estimate D2E/DX2                !
 ! R66   R(57,62)                1.0795         estimate D2E/DX2                !
 ! A1    A(1,2,3)              109.3192         estimate D2E/DX2                !
 ! A2    A(1,2,13)             123.2253         estimate D2E/DX2                !
 ! A3    A(3,2,13)             122.12           estimate D2E/DX2                !
 ! A4    A(2,3,4)              110.5572         estimate D2E/DX2                !
 ! A5    A(2,3,5)              110.5673         estimate D2E/DX2                !
 ! A6    A(2,3,21)             109.7759         estimate D2E/DX2                !
 ! A7    A(4,3,5)              106.8467         estimate D2E/DX2                !
 ! A8    A(4,3,21)             109.4928         estimate D2E/DX2                !
 ! A9    A(5,3,21)             109.5506         estimate D2E/DX2                !
 ! A10   A(8,6,9)              112.6849         estimate D2E/DX2                !
 ! A11   A(8,6,10)             109.9318         estimate D2E/DX2                !
 ! A12   A(8,6,20)             115.5084         estimate D2E/DX2                !
 ! A13   A(9,6,10)             106.1388         estimate D2E/DX2                !
 ! A14   A(9,6,20)             107.066          estimate D2E/DX2                !
 ! A15   A(10,6,20)            104.8276         estimate D2E/DX2                !
 ! A16   A(11,7,12)            112.1782         estimate D2E/DX2                !
 ! A17   A(11,7,13)            111.1929         estimate D2E/DX2                !
 ! A18   A(11,7,18)            112.9556         estimate D2E/DX2                !
 ! A19   A(12,7,13)            109.0298         estimate D2E/DX2                !
 ! A20   A(12,7,18)            104.5587         estimate D2E/DX2                !
 ! A21   A(13,7,18)            106.5508         estimate D2E/DX2                !
 ! A22   A(6,8,11)             109.0215         estimate D2E/DX2                !
 ! A23   A(6,8,14)             109.7032         estimate D2E/DX2                !
 ! A24   A(6,8,15)             110.1354         estimate D2E/DX2                !
 ! A25   A(11,8,14)            111.4316         estimate D2E/DX2                !
 ! A26   A(11,8,15)            109.491          estimate D2E/DX2                !
 ! A27   A(14,8,15)            107.0418         estimate D2E/DX2                !
 ! A28   A(7,11,8)             109.19           estimate D2E/DX2                !
 ! A29   A(7,11,16)            108.1054         estimate D2E/DX2                !
 ! A30   A(7,11,17)            110.446          estimate D2E/DX2                !
 ! A31   A(8,11,16)            111.4537         estimate D2E/DX2                !
 ! A32   A(8,11,17)            110.2755         estimate D2E/DX2                !
 ! A33   A(16,11,17)           107.3384         estimate D2E/DX2                !
 ! A34   A(7,18,20)            123.7432         estimate D2E/DX2                !
 ! A35   A(6,20,18)            119.3678         estimate D2E/DX2                !
 ! A36   A(6,20,19)            122.035          estimate D2E/DX2                !
 ! A37   A(18,20,19)           118.5218         estimate D2E/DX2                !
 ! A38   A(3,21,22)            110.6665         estimate D2E/DX2                !
 ! A39   A(3,21,23)            110.6772         estimate D2E/DX2                !
 ! A40   A(3,21,24)            110.6881         estimate D2E/DX2                !
 ! A41   A(22,21,23)           108.1573         estimate D2E/DX2                !
 ! A42   A(22,21,24)           108.2394         estimate D2E/DX2                !
 ! A43   A(23,21,24)           108.3192         estimate D2E/DX2                !
 ! A44   A(26,25,29)           107.3936         estimate D2E/DX2                !
 ! A45   A(25,26,27)           108.1917         estimate D2E/DX2                !
 ! A46   A(25,26,36)           119.4896         estimate D2E/DX2                !
 ! A47   A(27,26,36)           132.3123         estimate D2E/DX2                !
 ! A48   A(26,27,28)           112.3072         estimate D2E/DX2                !
 ! A49   A(26,27,52)           125.5742         estimate D2E/DX2                !
 ! A50   A(28,27,52)           122.0275         estimate D2E/DX2                !
 ! A51   A(1,28,27)            127.374          estimate D2E/DX2                !
 ! A52   A(1,28,29)            130.5922         estimate D2E/DX2                !
 ! A53   A(27,28,29)           100.935          estimate D2E/DX2                !
 ! A54   A(25,29,28)           111.1637         estimate D2E/DX2                !
 ! A55   A(25,29,30)           115.9809         estimate D2E/DX2                !
 ! A56   A(28,29,30)           132.8553         estimate D2E/DX2                !
 ! A57   A(29,30,31)           119.6189         estimate D2E/DX2                !
 ! A58   A(29,30,35)           121.7306         estimate D2E/DX2                !
 ! A59   A(31,30,35)           118.6504         estimate D2E/DX2                !
 ! A60   A(30,31,32)           120.5664         estimate D2E/DX2                !
 ! A61   A(30,31,42)           118.9533         estimate D2E/DX2                !
 ! A62   A(32,31,42)           120.4802         estimate D2E/DX2                !
 ! A63   A(31,32,33)           120.4425         estimate D2E/DX2                !
 ! A64   A(31,32,43)           119.5522         estimate D2E/DX2                !
 ! A65   A(33,32,43)           120.0053         estimate D2E/DX2                !
 ! A66   A(32,33,34)           119.3772         estimate D2E/DX2                !
 ! A67   A(32,33,44)           120.298          estimate D2E/DX2                !
 ! A68   A(34,33,44)           120.3248         estimate D2E/DX2                !
 ! A69   A(33,34,35)           120.4723         estimate D2E/DX2                !
 ! A70   A(33,34,45)           120.0479         estimate D2E/DX2                !
 ! A71   A(35,34,45)           119.4798         estimate D2E/DX2                !
 ! A72   A(30,35,34)           120.4912         estimate D2E/DX2                !
 ! A73   A(30,35,46)           119.7268         estimate D2E/DX2                !
 ! A74   A(34,35,46)           119.782          estimate D2E/DX2                !
 ! A75   A(26,36,37)           122.231          estimate D2E/DX2                !
 ! A76   A(26,36,41)           118.3232         estimate D2E/DX2                !
 ! A77   A(37,36,41)           119.4158         estimate D2E/DX2                !
 ! A78   A(36,37,38)           119.9279         estimate D2E/DX2                !
 ! A79   A(36,37,47)           120.4708         estimate D2E/DX2                !
 ! A80   A(38,37,47)           119.5915         estimate D2E/DX2                !
 ! A81   A(37,38,39)           120.417          estimate D2E/DX2                !
 ! A82   A(37,38,48)           119.4599         estimate D2E/DX2                !
 ! A83   A(39,38,48)           120.1221         estimate D2E/DX2                !
 ! A84   A(38,39,40)           119.883          estimate D2E/DX2                !
 ! A85   A(38,39,49)           120.0402         estimate D2E/DX2                !
 ! A86   A(40,39,49)           120.0762         estimate D2E/DX2                !
 ! A87   A(39,40,41)           120.1712         estimate D2E/DX2                !
 ! A88   A(39,40,50)           120.1913         estimate D2E/DX2                !
 ! A89   A(41,40,50)           119.6375         estimate D2E/DX2                !
 ! A90   A(36,41,40)           120.1797         estimate D2E/DX2                !
 ! A91   A(36,41,51)           119.6405         estimate D2E/DX2                !
 ! A92   A(40,41,51)           120.178          estimate D2E/DX2                !
 ! A93   A(27,52,53)           119.9383         estimate D2E/DX2                !
 ! A94   A(27,52,54)           118.9227         estimate D2E/DX2                !
 ! A95   A(53,52,54)           121.1103         estimate D2E/DX2                !
 ! A96   A(52,53,55)           119.2159         estimate D2E/DX2                !
 ! A97   A(52,53,58)           120.0545         estimate D2E/DX2                !
 ! A98   A(55,53,58)           120.7293         estimate D2E/DX2                !
 ! A99   A(52,54,56)           119.2783         estimate D2E/DX2                !
 ! A100  A(52,54,59)           119.5995         estimate D2E/DX2                !
 ! A101  A(56,54,59)           121.1222         estimate D2E/DX2                !
 ! A102  A(53,55,57)           120.217          estimate D2E/DX2                !
 ! A103  A(53,55,60)           119.5637         estimate D2E/DX2                !
 ! A104  A(57,55,60)           120.218          estimate D2E/DX2                !
 ! A105  A(54,56,57)           120.188          estimate D2E/DX2                !
 ! A106  A(54,56,61)           119.6204         estimate D2E/DX2                !
 ! A107  A(57,56,61)           120.1915         estimate D2E/DX2                !
 ! A108  A(55,57,56)           119.9846         estimate D2E/DX2                !
 ! A109  A(55,57,62)           119.9988         estimate D2E/DX2                !
 ! A110  A(56,57,62)           120.0158         estimate D2E/DX2                !
 ! A111  L(2,1,28,42,-1)       188.1442         estimate D2E/DX2                !
 ! A112  L(2,13,7,9,-1)        175.6776         estimate D2E/DX2                !
 ! A113  L(2,1,28,42,-2)       173.1092         estimate D2E/DX2                !
 ! A114  L(2,13,7,9,-2)        183.2122         estimate D2E/DX2                !
 ! D1    D(1,2,7,11)           -99.5938         estimate D2E/DX2                !
 ! D2    D(1,2,7,12)            26.9466         estimate D2E/DX2                !
 ! D3    D(1,2,7,18)           138.6817         estimate D2E/DX2                !
 ! D4    D(3,2,7,11)           109.188          estimate D2E/DX2                !
 ! D5    D(3,2,7,12)          -124.2716         estimate D2E/DX2                !
 ! D6    D(3,2,7,18)           -12.5365         estimate D2E/DX2                !
 ! D7    D(3,2,28,27)         -105.668          estimate D2E/DX2                !
 ! D8    D(3,2,28,29)           92.7192         estimate D2E/DX2                !
 ! D9    D(13,2,28,27)          94.2952         estimate D2E/DX2                !
 ! D10   D(13,2,28,29)         -67.3176         estimate D2E/DX2                !
 ! D11   D(1,2,3,4)            -56.6894         estimate D2E/DX2                !
 ! D12   D(1,2,3,5)             61.4301         estimate D2E/DX2                !
 ! D13   D(1,2,3,21)          -177.5903         estimate D2E/DX2                !
 ! D14   D(13,2,3,4)            98.221          estimate D2E/DX2                !
 ! D15   D(13,2,3,5)          -143.6595         estimate D2E/DX2                !
 ! D16   D(13,2,3,21)          -22.6799         estimate D2E/DX2                !
 ! D17   D(2,3,21,22)         -179.74           estimate D2E/DX2                !
 ! D18   D(2,3,21,23)          -59.849          estimate D2E/DX2                !
 ! D19   D(2,3,21,24)           60.259          estimate D2E/DX2                !
 ! D20   D(4,3,21,22)           58.719          estimate D2E/DX2                !
 ! D21   D(4,3,21,23)          178.61           estimate D2E/DX2                !
 ! D22   D(4,3,21,24)          -61.282          estimate D2E/DX2                !
 ! D23   D(5,3,21,22)          -58.1494         estimate D2E/DX2                !
 ! D24   D(5,3,21,23)           61.7416         estimate D2E/DX2                !
 ! D25   D(5,3,21,24)         -178.1504         estimate D2E/DX2                !
 ! D26   D(9,6,8,11)           166.5411         estimate D2E/DX2                !
 ! D27   D(9,6,8,14)           -71.1835         estimate D2E/DX2                !
 ! D28   D(9,6,8,15)            46.3884         estimate D2E/DX2                !
 ! D29   D(10,6,8,11)          -75.2918         estimate D2E/DX2                !
 ! D30   D(10,6,8,14)           46.9836         estimate D2E/DX2                !
 ! D31   D(10,6,8,15)          164.5555         estimate D2E/DX2                !
 ! D32   D(20,6,8,11)           43.0445         estimate D2E/DX2                !
 ! D33   D(20,6,8,14)          165.3199         estimate D2E/DX2                !
 ! D34   D(20,6,8,15)          -77.1082         estimate D2E/DX2                !
 ! D35   D(8,6,20,18)          -18.4715         estimate D2E/DX2                !
 ! D36   D(8,6,20,19)          164.7348         estimate D2E/DX2                !
 ! D37   D(9,6,20,18)         -144.8761         estimate D2E/DX2                !
 ! D38   D(9,6,20,19)           38.3302         estimate D2E/DX2                !
 ! D39   D(10,6,20,18)         102.6629         estimate D2E/DX2                !
 ! D40   D(10,6,20,19)         -74.1308         estimate D2E/DX2                !
 ! D41   D(12,7,11,8)          170.5304         estimate D2E/DX2                !
 ! D42   D(12,7,11,16)         -68.0544         estimate D2E/DX2                !
 ! D43   D(12,7,11,17)          49.1078         estimate D2E/DX2                !
 ! D44   D(13,7,11,8)          -67.0775         estimate D2E/DX2                !
 ! D45   D(13,7,11,16)          54.3377         estimate D2E/DX2                !
 ! D46   D(13,7,11,17)         171.5            estimate D2E/DX2                !
 ! D47   D(18,7,11,8)           52.6604         estimate D2E/DX2                !
 ! D48   D(18,7,11,16)         174.0756         estimate D2E/DX2                !
 ! D49   D(18,7,11,17)         -68.7621         estimate D2E/DX2                !
 ! D50   D(11,7,18,20)         -28.5133         estimate D2E/DX2                !
 ! D51   D(12,7,18,20)        -150.7595         estimate D2E/DX2                !
 ! D52   D(13,7,18,20)          93.8606         estimate D2E/DX2                !
 ! D53   D(6,8,11,7)           -59.7058         estimate D2E/DX2                !
 ! D54   D(6,8,11,16)         -179.0673         estimate D2E/DX2                !
 ! D55   D(6,8,11,17)           61.8201         estimate D2E/DX2                !
 ! D56   D(14,8,11,7)          179.0668         estimate D2E/DX2                !
 ! D57   D(14,8,11,16)          59.7053         estimate D2E/DX2                !
 ! D58   D(14,8,11,17)         -59.4073         estimate D2E/DX2                !
 ! D59   D(15,8,11,7)           60.8434         estimate D2E/DX2                !
 ! D60   D(15,8,11,16)         -58.5181         estimate D2E/DX2                !
 ! D61   D(15,8,11,17)        -177.6307         estimate D2E/DX2                !
 ! D62   D(7,18,20,6)           10.7302         estimate D2E/DX2                !
 ! D63   D(7,18,20,19)        -172.3632         estimate D2E/DX2                !
 ! D64   D(29,25,26,27)         -0.8044         estimate D2E/DX2                !
 ! D65   D(29,25,26,36)        178.3878         estimate D2E/DX2                !
 ! D66   D(26,25,29,28)          0.3459         estimate D2E/DX2                !
 ! D67   D(26,25,29,30)       -179.5577         estimate D2E/DX2                !
 ! D68   D(25,26,27,28)          1.0071         estimate D2E/DX2                !
 ! D69   D(25,26,27,52)       -175.5639         estimate D2E/DX2                !
 ! D70   D(36,26,27,28)       -178.042          estimate D2E/DX2                !
 ! D71   D(36,26,27,52)          5.387          estimate D2E/DX2                !
 ! D72   D(25,26,36,37)       -152.755          estimate D2E/DX2                !
 ! D73   D(25,26,36,41)         25.2375         estimate D2E/DX2                !
 ! D74   D(27,26,36,37)         26.2072         estimate D2E/DX2                !
 ! D75   D(27,26,36,41)       -155.8003         estimate D2E/DX2                !
 ! D76   D(26,27,28,1)        -169.7034         estimate D2E/DX2                !
 ! D77   D(26,27,28,29)         -0.7444         estimate D2E/DX2                !
 ! D78   D(52,27,28,1)           7.007          estimate D2E/DX2                !
 ! D79   D(52,27,28,29)        175.966          estimate D2E/DX2                !
 ! D80   D(26,27,52,53)         62.0966         estimate D2E/DX2                !
 ! D81   D(26,27,52,54)       -119.8276         estimate D2E/DX2                !
 ! D82   D(28,27,52,53)       -114.1611         estimate D2E/DX2                !
 ! D83   D(28,27,52,54)         63.9148         estimate D2E/DX2                !
 ! D84   D(1,28,29,25)         168.6679         estimate D2E/DX2                !
 ! D85   D(1,28,29,30)         -11.4503         estimate D2E/DX2                !
 ! D86   D(27,28,29,25)          0.2296         estimate D2E/DX2                !
 ! D87   D(27,28,29,30)       -179.8886         estimate D2E/DX2                !
 ! D88   D(25,29,30,31)       -179.9281         estimate D2E/DX2                !
 ! D89   D(25,29,30,35)          0.1567         estimate D2E/DX2                !
 ! D90   D(28,29,30,31)          0.1945         estimate D2E/DX2                !
 ! D91   D(28,29,30,35)       -179.7206         estimate D2E/DX2                !
 ! D92   D(29,30,31,32)       -179.9013         estimate D2E/DX2                !
 ! D93   D(29,30,31,42)          0.1176         estimate D2E/DX2                !
 ! D94   D(35,30,31,32)          0.0165         estimate D2E/DX2                !
 ! D95   D(35,30,31,42)       -179.9646         estimate D2E/DX2                !
 ! D96   D(29,30,35,34)        179.9128         estimate D2E/DX2                !
 ! D97   D(29,30,35,46)         -0.0297         estimate D2E/DX2                !
 ! D98   D(31,30,35,34)         -0.0032         estimate D2E/DX2                !
 ! D99   D(31,30,35,46)       -179.9457         estimate D2E/DX2                !
 ! D100  D(30,31,32,33)         -0.0097         estimate D2E/DX2                !
 ! D101  D(30,31,32,43)       -179.9918         estimate D2E/DX2                !
 ! D102  D(42,31,32,33)        179.971          estimate D2E/DX2                !
 ! D103  D(42,31,32,43)         -0.0111         estimate D2E/DX2                !
 ! D104  D(31,32,33,34)         -0.0104         estimate D2E/DX2                !
 ! D105  D(31,32,33,44)        179.9954         estimate D2E/DX2                !
 ! D106  D(43,32,33,34)        179.9716         estimate D2E/DX2                !
 ! D107  D(43,32,33,44)         -0.0225         estimate D2E/DX2                !
 ! D108  D(32,33,34,35)          0.0237         estimate D2E/DX2                !
 ! D109  D(32,33,34,45)        179.9843         estimate D2E/DX2                !
 ! D110  D(44,33,34,35)       -179.9822         estimate D2E/DX2                !
 ! D111  D(44,33,34,45)         -0.0216         estimate D2E/DX2                !
 ! D112  D(33,34,35,30)         -0.0169         estimate D2E/DX2                !
 ! D113  D(33,34,35,46)        179.9256         estimate D2E/DX2                !
 ! D114  D(45,34,35,30)       -179.9777         estimate D2E/DX2                !
 ! D115  D(45,34,35,46)         -0.0352         estimate D2E/DX2                !
 ! D116  D(26,36,37,38)        178.5114         estimate D2E/DX2                !
 ! D117  D(26,36,37,47)         -0.345          estimate D2E/DX2                !
 ! D118  D(41,36,37,38)          0.5401         estimate D2E/DX2                !
 ! D119  D(41,36,37,47)       -178.3162         estimate D2E/DX2                !
 ! D120  D(26,36,41,40)       -178.8774         estimate D2E/DX2                !
 ! D121  D(26,36,41,51)          1.6094         estimate D2E/DX2                !
 ! D122  D(37,36,41,40)         -0.8269         estimate D2E/DX2                !
 ! D123  D(37,36,41,51)        179.66           estimate D2E/DX2                !
 ! D124  D(36,37,38,39)          0.1202         estimate D2E/DX2                !
 ! D125  D(36,37,38,48)       -179.5242         estimate D2E/DX2                !
 ! D126  D(47,37,38,39)        178.9867         estimate D2E/DX2                !
 ! D127  D(47,37,38,48)         -0.6578         estimate D2E/DX2                !
 ! D128  D(37,38,39,40)         -0.5008         estimate D2E/DX2                !
 ! D129  D(37,38,39,49)        179.7756         estimate D2E/DX2                !
 ! D130  D(48,38,39,40)        179.1413         estimate D2E/DX2                !
 ! D131  D(48,38,39,49)         -0.5823         estimate D2E/DX2                !
 ! D132  D(38,39,40,41)          0.2128         estimate D2E/DX2                !
 ! D133  D(38,39,40,50)       -179.8388         estimate D2E/DX2                !
 ! D134  D(49,39,40,41)        179.9363         estimate D2E/DX2                !
 ! D135  D(49,39,40,50)         -0.1153         estimate D2E/DX2                !
 ! D136  D(39,40,41,36)          0.4523         estimate D2E/DX2                !
 ! D137  D(39,40,41,51)        179.9628         estimate D2E/DX2                !
 ! D138  D(50,40,41,36)       -179.4964         estimate D2E/DX2                !
 ! D139  D(50,40,41,51)          0.0142         estimate D2E/DX2                !
 ! D140  D(27,52,53,55)        178.8811         estimate D2E/DX2                !
 ! D141  D(27,52,53,58)         -0.9035         estimate D2E/DX2                !
 ! D142  D(54,52,53,55)          0.8482         estimate D2E/DX2                !
 ! D143  D(54,52,53,58)       -178.9364         estimate D2E/DX2                !
 ! D144  D(27,52,54,56)       -178.8919         estimate D2E/DX2                !
 ! D145  D(27,52,54,59)          1.1019         estimate D2E/DX2                !
 ! D146  D(53,52,54,56)         -0.8395         estimate D2E/DX2                !
 ! D147  D(53,52,54,59)        179.1544         estimate D2E/DX2                !
 ! D148  D(52,53,55,57)         -0.2995         estimate D2E/DX2                !
 ! D149  D(52,53,55,60)       -179.8909         estimate D2E/DX2                !
 ! D150  D(58,53,55,57)        179.4836         estimate D2E/DX2                !
 ! D151  D(58,53,55,60)         -0.1079         estimate D2E/DX2                !
 ! D152  D(52,54,56,57)          0.2815         estimate D2E/DX2                !
 ! D153  D(52,54,56,61)       -179.7341         estimate D2E/DX2                !
 ! D154  D(59,54,56,57)       -179.7122         estimate D2E/DX2                !
 ! D155  D(59,54,56,61)          0.2722         estimate D2E/DX2                !
 ! D156  D(53,55,57,56)         -0.2439         estimate D2E/DX2                !
 ! D157  D(53,55,57,62)       -179.8999         estimate D2E/DX2                !
 ! D158  D(60,55,57,56)        179.3449         estimate D2E/DX2                !
 ! D159  D(60,55,57,62)         -0.3111         estimate D2E/DX2                !
 ! D160  D(54,56,57,55)          0.2531         estimate D2E/DX2                !
 ! D161  D(54,56,57,62)        179.9091         estimate D2E/DX2                !
 ! D162  D(61,56,57,55)       -179.7312         estimate D2E/DX2                !
 ! D163  D(61,56,57,62)         -0.0752         estimate D2E/DX2                !
 --------------------------------------------------------------------------------
 Trust Radius=3.00D-01 FncErr=1.00D-07 GrdErr=1.00D-06
 Number of steps in this run=    353 maximum allowed number of steps=    372.
 GradGradGradGradGradGradGradGradGradGradGradGradGradGradGradGradGradGrad

 Leave Link  103 at Sat Dec 18 08:53:30 2021, MaxMem=  6710886400 cpu:         0.2
 (Enter /usr/local/gqt/g09/l202.exe)
 Stoichiometry    C28H29NO4
 Framework group  C1[X(C28H29NO4)]
 Deg. of freedom   180
 Full point group                 C1      NOp   1
 Largest Abelian subgroup         C1      NOp   1
 Largest concise Abelian subgroup C1      NOp   1
                         Standard orientation:                         
 ---------------------------------------------------------------------
 Center     Atomic      Atomic             Coordinates (Angstroms)
 Number     Number       Type             X           Y           Z
 ---------------------------------------------------------------------
      1          1           0        1.055258    0.293508    0.887851
      2          8           0        2.003047    0.000515    0.939878
      3          6           0        2.461056    0.138400    2.263585
      4          1           0        2.337640    1.170816    2.607659
      5          1           0        1.876623   -0.494032    2.940926
      6          6           0        6.297559   -1.746272   -0.836753
      7          6           0        4.204677    0.053842   -1.667045
      8          6           0        4.942083   -2.265842   -1.285665
      9          1           0        6.667722   -2.252903    0.050699
     10          1           0        7.040790   -1.920759   -1.618300
     11          6           0        4.355565   -1.303996   -2.301020
     12          1           0        3.944647    0.818185   -2.392561
     13          1           0        3.451212    0.039682   -0.880551
     14          1           0        5.051706   -3.264800   -1.701686
     15          1           0        4.269527   -2.347559   -0.431052
     16          1           0        3.373404   -1.630986   -2.638197
     17          1           0        4.998219   -1.244603   -3.180729
     18          8           0        5.427462    0.531390   -1.057949
     19          8           0        7.283377    0.228419    0.049027
     20          6           0        6.366692   -0.268026   -0.562619
     21          6           0        3.918615   -0.248302    2.342793
     22          1           0        4.287090   -0.151219    3.362858
     23          1           0        4.060151   -1.281329    2.027627
     24          1           0        4.521639    0.391132    1.700364
     25          8           0       -2.761928    1.440691   -0.159925
     26          6           0       -2.928235    0.148702   -0.055370
     27          7           0       -1.780545   -0.386184    0.357167
     28          6           0       -0.780743    0.587669    0.567917
     29          6           0       -1.450594    1.724904    0.223660
     30          6           0       -1.067123    3.120755    0.186320
     31          6           0        0.230493    3.491234    0.554118
     32          6           0        0.616983    4.818664    0.527662
     33          6           0       -0.279535    5.805545    0.134455
     34          6           0       -1.568542    5.446999   -0.232409
     35          6           0       -1.962404    4.118522   -0.207871
     36          6           0       -4.219550   -0.430379   -0.359143
     37          6           0       -4.656719   -1.623331    0.222406
     38          6           0       -5.912913   -2.118162   -0.078739
     39          6           0       -6.743657   -1.438226   -0.958403
     40          6           0       -6.317198   -0.248378   -1.532831
     41          6           0       -5.066257    0.257982   -1.234241
     42          1           0        0.926068    2.724608    0.858802
     43          1           0        1.623204    5.086378    0.814912
     44          1           0        0.024685    6.841261    0.114731
     45          1           0       -2.274045    6.204964   -0.539485
     46          1           0       -2.967965    3.852315   -0.494293
     47          1           0       -4.029220   -2.153330    0.919628
     48          1           0       -6.245938   -3.036208    0.380708
     49          1           0       -7.721356   -1.831772   -1.191886
     50          1           0       -6.960173    0.285797   -2.215520
     51          1           0       -4.734634    1.181948   -1.680862
     52          6           0       -1.521733   -1.782449    0.508760
     53          6           0       -1.579463   -2.620177   -0.593562
     54          6           0       -1.176076   -2.267773    1.759139
     55          6           0       -1.302673   -3.969154   -0.433531
     56          6           0       -0.900810   -3.617436    1.909856
     57          6           0       -0.966105   -4.469478    0.816050
     58          1           0       -1.834056   -2.220668   -1.563369
     59          1           0       -1.125387   -1.591352    2.597885
     60          1           0       -1.344259   -4.626425   -1.288664
     61          1           0       -0.635084   -4.002329    2.882643
     62          1           0       -0.749683   -5.520174    0.936339
 ---------------------------------------------------------------------
 Rotational constants (GHZ):      0.1481943      0.0710339      0.0537216
 Leave Link  202 at Sat Dec 18 08:53:30 2021, MaxMem=  6710886400 cpu:         0.0
 (Enter /usr/local/gqt/g09/l301.exe)
 Standard basis: 6-311+G(d,p) (5D, 7F)
 Ernie: Thresh=  0.10000D-02 Tol=  0.10000D-05 Strict=F.
 There are   933 symmetry adapted cartesian basis functions of A   symmetry.
 There are   900 symmetry adapted basis functions of A   symmetry.
   900 basis functions,  1420 primitive gaussians,   933 cartesian basis functions
   118 alpha electrons      118 beta electrons
       nuclear repulsion energy      3154.7061626466 Hartrees.
 IExCor= 5547 DFT=T Ex+Corr=N12SX ExCW=0 ScaHFX=  0.250000
 ScaDFX=  1.000000  1.000000  1.000000  1.000000 ScalE2=  1.000000  1.000000
 IRadAn=      0 IRanWt=     -1 IRanGd=            0 ICorTp=0 IEmpDi=  4
  HFx wShort=  0.110000 wLong=  0.000000 cFull=  0.000000 cShort=  1.000000 cLong=  0.000000
  DFx wShort=  0.110000 wLong=  0.000000 cFull=  0.000000 cShort=  1.000000 cLong=  0.000000
 NAtoms=   62 NActive=   62 NUniq=   62 SFac= 1.00D+00 NAtFMM=   60 NAOKFM=T Big=T
 Integral buffers will be    131072 words long.
 Raffenetti 2 integral format.
 Two-electron integral symmetry is turned on.
 ------------------------------------------------------------------------------
 Polarizable Continuum Model (PCM)
 =================================
 Model                : PCM (using non-symmetric T matrix).
 Atomic radii         : UFF (Universal Force Field).
 Polarization charges : Total charges.
 Charge compensation  : None.
 Solution method      : On-the-fly selection.
 Cavity type          : Scaled VdW (van der Waals Surface) (Alpha=1.100).
 Cavity algorithm     : GePol (No added spheres)
                        Default sphere list used, NSphG=   62.
                        Lebedev-Laikov grids with approx.  5.0 points / Ang**2.
                        Smoothing algorithm: Karplus/York (Gamma=1.0000).
                        Polarization charges: spherical gaussians, with
                                              point-specific exponents (IZeta= 3).
                        Self-potential: point-specific (ISelfS= 7).
                        Self-field    : sphere-specific E.n sum rule (ISelfD= 2).
 1st derivatives      : Analytical E(r).r(x)/FMM algorithm (CHGder, D1EAlg=3).
                        Cavity 1st derivative terms included.
 Solvent              : Ethanol, Eps=  24.852000 Eps(inf)=   1.852593
 ------------------------------------------------------------------------------
 GePol: Number of generator spheres                  =      62
 GePol: Total number of spheres                      =      62
 GePol: Number of exposed spheres                    =      62 (100.00%)
 GePol: Number of points                             =    4690
 GePol: Average weight of points                     =       0.13
 GePol: Minimum weight of points                     =   0.10D-11
 GePol: Maximum weight of points                     =    0.20577
 GePol: Number of points with low weight             =     313
 GePol: Fraction of low-weight points (<1% of avg)   =       6.67%
 GePol: Cavity surface area                          =    590.906 Ang**2
 GePol: Cavity volume                                =    643.023 Ang**3
 Leave Link  301 at Sat Dec 18 08:53:30 2021, MaxMem=  6710886400 cpu:         0.8
 (Enter /usr/local/gqt/g09/l302.exe)
 NPDir=0 NMtPBC=     1 NCelOv=     1 NCel=       1 NClECP=     1 NCelD=      1
         NCelK=      1 NCelE2=     1 NClLst=     1 CellRange=     0.0.
 One-electron integrals computed using PRISM.
 NBasis=   900 RedAO= T EigKep=  1.02D-06  NBF=   900
 NBsUse=   894 1.00D-06 EigRej=  9.34D-07 NBFU=   894
 Precomputing XC quadrature grid using
 IXCGrd= 4 IRadAn=           0 IRanWt=          -1 IRanGd=           0 AccXCQ= 0.00D+00.
 Generated NRdTot=       0 NPtTot=           0 NUsed=           0 NTot=          32
 NSgBfM=   879   879   883   883   884 MxSgAt=    62 MxSgA2=    62.
 Leave Link  302 at Sat Dec 18 08:53:33 2021, MaxMem=  6710886400 cpu:        39.0
 (Enter /usr/local/gqt/g09/l303.exe)
 DipDrv:  MaxL=1.
 Leave Link  303 at Sat Dec 18 08:53:33 2021, MaxMem=  6710886400 cpu:         2.4
 (Enter /usr/local/gqt/g09/l401.exe)
 ExpMin= 4.38D-02 ExpMax= 8.59D+03 ExpMxC= 1.30D+03 IAcc=2 IRadAn=         4 AccDes= 0.00D+00
 Harris functional with IExCor= 5547 and IRadAn=       4 diagonalized for initial guess.
 HarFok:  IExCor= 5547 AccDes= 0.00D+00 IRadAn=         4 IDoV= 1 UseB2=F ITyADJ=14
 ICtDFT=  3500011 ScaDFX=  1.000000  1.000000  1.000000  1.000000
 FoFCou: FMM=F IPFlag=           0 FMFlag=      100000 FMFlg1=        2001
         NFxFlg=           0 DoJE=T BraDBF=F KetDBF=T FulRan=T
         wScrn=  0.000000 ICntrl=     500 IOpCl=  0 I1Cent=   200000004 NGrid=           0
         NMat0=    1 NMatS0=      1 NMatT0=    0 NMatD0=    1 NMtDS0=    0 NMtDT0=    0
 Petite list used in FoFCou.
 Harris En= -1395.37919718602    
 JPrj=0 DoOrth=F DoCkMO=F.
 Leave Link  401 at Sat Dec 18 08:53:38 2021, MaxMem=  6710886400 cpu:        89.4
 (Enter /usr/local/gqt/g09/l502.exe)
 Closed shell SCF:
 Using DIIS extrapolation, IDIIS=  1040.
 Integral symmetry usage will be decided dynamically.
 IVT=     2651881 IEndB=     2651881 NGot=  6710886400 MDV=  6709122582
 LenX=  6709122582 LenY=  6708251160
 Requested convergence on RMS density matrix=1.00D-08 within 128 cycles.
 Requested convergence on MAX density matrix=1.00D-06.
 Requested convergence on             energy=1.00D-06.
 No special actions if energy rises.
 Fock matrices will be formed incrementally for  20 cycles.

 Cycle   1  Pass 1  IDiag  1:
 FoFJK:  IHMeth= 1 ICntrl=       0 DoSepK=T KAlg= 0 I1Cent=   0 FoldK=F
 IRaf=         1 NMat=   1 IRICut=       1 DoRegI=T DoRafI=F ISym2E= 0.
 FoFCou: FMM=T IPFlag=           0 FMFlag=      100000 FMFlg1=        2001
         NFxFlg=           0 DoJE=T BraDBF=F KetDBF=F FulRan=T
         wScrn=  0.000000 ICntrl=     500 IOpCl=  0 I1Cent=           0 NGrid=           0
         NMat0=    1 NMatS0=      1 NMatT0=    0 NMatD0=    1 NMtDS0=    0 NMtDT0=    0
 Symmetry not used in FoFCou.
 FMM levels:  10  Number of levels for PrismC:   9
 Inv3:  Mode=1 IEnd=    65988300.
 Iteration    1 A*A^-1 deviation from unit magnitude is 6.44D-15 for   4681.
 Iteration    1 A*A^-1 deviation from orthogonality  is 3.83D-15 for   4677   1282.
 Iteration    1 A^-1*A deviation from unit magnitude is 7.33D-15 for   4681.
 Iteration    1 A^-1*A deviation from orthogonality  is 1.20D-09 for   4039   3953.
 Iteration    2 A*A^-1 deviation from unit magnitude is 4.00D-15 for    124.
 Iteration    2 A*A^-1 deviation from orthogonality  is 5.13D-15 for   4686    575.
 Iteration    2 A^-1*A deviation from unit magnitude is 1.33D-15 for    786.
 Iteration    2 A^-1*A deviation from orthogonality  is 5.26D-16 for   4606    819.
 E= -1439.23176938176    
 DIIS: error= 5.22D-02 at cycle   1 NSaved=   1.
 NSaved= 1 IEnMin= 1 EnMin= -1439.23176938176     IErMin= 1 ErrMin= 5.22D-02
 ErrMax= 5.22D-02  0.00D+00 EMaxC= 1.00D-01 BMatC= 3.56D+00 BMatP= 3.56D+00
 IDIUse=3 WtCom= 4.78D-01 WtEn= 5.22D-01
 Coeff-Com:  0.100D+01
 Coeff-En:   0.100D+01
 Coeff:      0.100D+01
 Gap=     0.156 Goal=   None    Shift=    0.000
 GapD=    0.156 DampG=1.000 DampE=0.500 DampFc=0.5000 IDamp=-1.
 Damping current iteration by 5.00D-01
 RMSDP=1.79D-02 MaxDP=2.86D+00              OVMax= 3.64D-01

 Cycle   2  Pass 1  IDiag  1:
 RMSU=  8.92D-03    CP:  9.91D-01
 E= -1439.36852004210     Delta-E=       -0.136750660340 Rises=F Damp=T
 DIIS: error= 2.37D-02 at cycle   2 NSaved=   2.
 NSaved= 2 IEnMin= 2 EnMin= -1439.36852004210     IErMin= 2 ErrMin= 2.37D-02
 ErrMax= 2.37D-02  0.00D+00 EMaxC= 1.00D-01 BMatC= 7.62D-01 BMatP= 3.56D+00
 IDIUse=3 WtCom= 7.63D-01 WtEn= 2.37D-01
 Coeff-Com: -0.392D+00 0.139D+01
 Coeff-En:   0.321D+00 0.679D+00
 Coeff:     -0.223D+00 0.122D+01
 Gap=     0.165 Goal=   None    Shift=    0.000
 RMSDP=1.91D-02 MaxDP=4.00D+00 DE=-1.37D-01 OVMax= 4.54D-01

 Cycle   3  Pass 1  IDiag  1:
 RMSU=  5.87D-03    CP:  7.55D-01 -1.46D-01
 E= -1439.06971353582     Delta-E=        0.298806506279 Rises=F Damp=F
 DIIS: error= 3.30D-02 at cycle   3 NSaved=   3.
 NSaved= 3 IEnMin= 2 EnMin= -1439.36852004210     IErMin= 2 ErrMin= 2.37D-02
 ErrMax= 3.30D-02  0.00D+00 EMaxC= 1.00D-01 BMatC= 7.51D-01 BMatP= 7.62D-01
 IDIUse=3 WtCom= 6.70D-01 WtEn= 3.30D-01
 Coeff-Com: -0.390D+00 0.888D+00 0.502D+00
 Coeff-En:   0.000D+00 0.688D+00 0.312D+00
 Coeff:     -0.262D+00 0.822D+00 0.439D+00
 Gap=     0.178 Goal=   None    Shift=    0.000
 RMSDP=1.12D-02 MaxDP=2.21D+00 DE= 2.99D-01 OVMax= 1.86D-01

 Cycle   4  Pass 1  IDiag  1:
 RMSU=  3.82D-03    CP:  8.20D-01  8.21D-01  2.31D-01
 E= -1439.75210249549     Delta-E=       -0.682388959674 Rises=F Damp=F
 DIIS: error= 4.76D-03 at cycle   4 NSaved=   4.
 NSaved= 4 IEnMin= 4 EnMin= -1439.75210249549     IErMin= 4 ErrMin= 4.76D-03
 ErrMax= 4.76D-03  0.00D+00 EMaxC= 1.00D-01 BMatC= 1.73D-02 BMatP= 7.51D-01
 IDIUse=3 WtCom= 9.52D-01 WtEn= 4.76D-02
 Coeff-Com: -0.152D+00 0.346D+00 0.232D+00 0.574D+00
 Coeff-En:   0.000D+00 0.000D+00 0.000D+00 0.100D+01
 Coeff:     -0.145D+00 0.329D+00 0.221D+00 0.594D+00
 Gap=     0.123 Goal=   None    Shift=    0.000
 RMSDP=1.94D-03 MaxDP=3.76D-01 DE=-6.82D-01 OVMax= 3.93D-02

 Cycle   5  Pass 1  IDiag  1:
 RMSU=  1.28D-03    CP:  8.04D-01  7.50D-01  3.19D-01  8.26D-01
 E= -1439.76366404725     Delta-E=       -0.011561551757 Rises=F Damp=F
 DIIS: error= 3.38D-03 at cycle   5 NSaved=   5.
 NSaved= 5 IEnMin= 5 EnMin= -1439.76366404725     IErMin= 5 ErrMin= 3.38D-03
 ErrMax= 3.38D-03  0.00D+00 EMaxC= 1.00D-01 BMatC= 5.27D-03 BMatP= 1.73D-02
 IDIUse=3 WtCom= 9.66D-01 WtEn= 3.38D-02
 Coeff-Com: -0.146D-01 0.361D-01 0.277D-01 0.362D+00 0.589D+00
 Coeff-En:   0.000D+00 0.000D+00 0.000D+00 0.262D+00 0.738D+00
 Coeff:     -0.141D-01 0.349D-01 0.267D-01 0.359D+00 0.594D+00
 Gap=     0.124 Goal=   None    Shift=    0.000
 RMSDP=7.60D-04 MaxDP=1.19D-01 DE=-1.16D-02 OVMax= 1.72D-02

 Cycle   6  Pass 1  IDiag  1:
 RMSU=  3.80D-04    CP:  8.08D-01  7.80D-01  2.95D-01  9.23D-01  7.10D-01
 E= -1439.76788549559     Delta-E=       -0.004221448340 Rises=F Damp=F
 DIIS: error= 1.41D-03 at cycle   6 NSaved=   6.
 NSaved= 6 IEnMin= 6 EnMin= -1439.76788549559     IErMin= 6 ErrMin= 1.41D-03
 ErrMax= 1.41D-03  0.00D+00 EMaxC= 1.00D-01 BMatC= 7.00D-04 BMatP= 5.27D-03
 IDIUse=3 WtCom= 9.86D-01 WtEn= 1.41D-02
 Coeff-Com:  0.365D-02-0.648D-02-0.383D-02 0.173D+00 0.373D+00 0.461D+00
 Coeff-En:   0.000D+00 0.000D+00 0.000D+00 0.000D+00 0.357D-01 0.964D+00
 Coeff:      0.360D-02-0.639D-02-0.377D-02 0.171D+00 0.368D+00 0.468D+00
 Gap=     0.123 Goal=   None    Shift=    0.000
 RMSDP=1.41D-04 MaxDP=1.88D-02 DE=-4.22D-03 OVMax= 4.59D-03

 Cycle   7  Pass 1  IDiag  1:
 RMSU=  1.03D-04    CP:  8.08D-01  7.82D-01  2.90D-01  9.32D-01  6.87D-01
                    CP:  7.94D-01
 E= -1439.76841866073     Delta-E=       -0.000533165136 Rises=F Damp=F
 DIIS: error= 2.66D-04 at cycle   7 NSaved=   7.
 NSaved= 7 IEnMin= 7 EnMin= -1439.76841866073     IErMin= 7 ErrMin= 2.66D-04
 ErrMax= 2.66D-04  0.00D+00 EMaxC= 1.00D-01 BMatC= 4.16D-05 BMatP= 7.00D-04
 IDIUse=3 WtCom= 9.97D-01 WtEn= 2.66D-03
 Coeff-Com:  0.275D-02-0.538D-02-0.407D-02 0.658D-01 0.152D+00 0.259D+00
 Coeff-Com:  0.530D+00
 Coeff-En:   0.000D+00 0.000D+00 0.000D+00 0.000D+00 0.000D+00 0.000D+00
 Coeff-En:   0.100D+01
 Coeff:      0.274D-02-0.537D-02-0.406D-02 0.657D-01 0.152D+00 0.258D+00
 Coeff:      0.531D+00
 Gap=     0.123 Goal=   None    Shift=    0.000
 RMSDP=6.32D-05 MaxDP=1.12D-02 DE=-5.33D-04 OVMax= 1.90D-03

 Cycle   8  Pass 1  IDiag  1:
 RMSU=  5.59D-05    CP:  8.08D-01  7.82D-01  2.89D-01  9.32D-01  6.96D-01
                    CP:  7.94D-01  8.77D-01
 E= -1439.76844639025     Delta-E=       -0.000027729524 Rises=F Damp=F
 DIIS: error= 7.62D-05 at cycle   8 NSaved=   8.
 NSaved= 8 IEnMin= 8 EnMin= -1439.76844639025     IErMin= 8 ErrMin= 7.62D-05
 ErrMax= 7.62D-05  0.00D+00 EMaxC= 1.00D-01 BMatC= 6.24D-06 BMatP= 4.16D-05
 IDIUse=1 WtCom= 1.00D+00 WtEn= 0.00D+00
 Coeff-Com:  0.971D-03-0.198D-02-0.189D-02 0.119D-01 0.306D-01 0.831D-01
 Coeff-Com:  0.322D+00 0.555D+00
 Coeff:      0.971D-03-0.198D-02-0.189D-02 0.119D-01 0.306D-01 0.831D-01
 Coeff:      0.322D+00 0.555D+00
 Gap=     0.123 Goal=   None    Shift=    0.000
 RMSDP=3.23D-05 MaxDP=6.44D-03 DE=-2.77D-05 OVMax= 6.08D-04

 Cycle   9  Pass 1  IDiag  1:
 RMSU=  1.38D-05    CP:  8.08D-01  7.84D-01  2.88D-01  9.35D-01  6.88D-01
                    CP:  8.02D-01  9.58D-01  1.04D+00
 E= -1439.76845191587     Delta-E=       -0.000005525621 Rises=F Damp=F
 DIIS: error= 3.13D-05 at cycle   9 NSaved=   9.
 NSaved= 9 IEnMin= 9 EnMin= -1439.76845191587     IErMin= 9 ErrMin= 3.13D-05
 ErrMax= 3.13D-05  0.00D+00 EMaxC= 1.00D-01 BMatC= 4.45D-07 BMatP= 6.24D-06
 IDIUse=1 WtCom= 1.00D+00 WtEn= 0.00D+00
 Coeff-Com: -0.189D-04 0.301D-04-0.266D-03-0.847D-03-0.115D-02 0.149D-01
 Coeff-Com:  0.108D+00 0.277D+00 0.603D+00
 Coeff:     -0.189D-04 0.301D-04-0.266D-03-0.847D-03-0.115D-02 0.149D-01
 Coeff:      0.108D+00 0.277D+00 0.603D+00
 Gap=     0.123 Goal=   None    Shift=    0.000
 RMSDP=1.06D-05 MaxDP=1.84D-03 DE=-5.53D-06 OVMax= 4.02D-04

 Cycle  10  Pass 1  IDiag  1:
 RMSU=  6.40D-06    CP:  8.08D-01  7.83D-01  2.88D-01  9.34D-01  6.89D-01
                    CP:  7.99D-01  9.57D-01  1.02D+00  7.66D-01
 E= -1439.76845227806     Delta-E=       -0.000000362186 Rises=F Damp=F
 DIIS: error= 1.30D-05 at cycle  10 NSaved=  10.
 NSaved=10 IEnMin=10 EnMin= -1439.76845227806     IErMin=10 ErrMin= 1.30D-05
 ErrMax= 1.30D-05  0.00D+00 EMaxC= 1.00D-01 BMatC= 1.01D-07 BMatP= 4.45D-07
 IDIUse=1 WtCom= 1.00D+00 WtEn= 0.00D+00
 Coeff-Com: -0.391D-04 0.588D-04-0.450D-04-0.235D-02-0.494D-02-0.229D-02
 Coeff-Com:  0.184D-01 0.785D-01 0.372D+00 0.540D+00
 Coeff:     -0.391D-04 0.588D-04-0.450D-04-0.235D-02-0.494D-02-0.229D-02
 Coeff:      0.184D-01 0.785D-01 0.372D+00 0.540D+00
 Gap=     0.123 Goal=   None    Shift=    0.000
 RMSDP=3.76D-06 MaxDP=5.13D-04 DE=-3.62D-07 OVMax= 6.99D-05

 Cycle  11  Pass 1  IDiag  1:
 RMSU=  1.63D-06    CP:  8.08D-01  7.83D-01  2.88D-01  9.34D-01  6.89D-01
                    CP:  8.03D-01  9.64D-01  1.03D+00  8.42D-01  8.39D-01
 E= -1439.76845237101     Delta-E=       -0.000000092948 Rises=F Damp=F
 DIIS: error= 2.13D-06 at cycle  11 NSaved=  11.
 NSaved=11 IEnMin=11 EnMin= -1439.76845237101     IErMin=11 ErrMin= 2.13D-06
 ErrMax= 2.13D-06  0.00D+00 EMaxC= 1.00D-01 BMatC= 5.73D-09 BMatP= 1.01D-07
 IDIUse=1 WtCom= 1.00D+00 WtEn= 0.00D+00
 Coeff-Com: -0.130D-04 0.173D-04-0.159D-05-0.108D-02-0.228D-02-0.213D-02
 Coeff-Com:  0.843D-04 0.145D-01 0.150D+00 0.256D+00 0.585D+00
 Coeff:     -0.130D-04 0.173D-04-0.159D-05-0.108D-02-0.228D-02-0.213D-02
 Coeff:      0.843D-04 0.145D-01 0.150D+00 0.256D+00 0.585D+00
 Gap=     0.123 Goal=   None    Shift=    0.000
 RMSDP=1.04D-06 MaxDP=3.25D-04 DE=-9.29D-08 OVMax= 2.94D-05

 Cycle  12  Pass 1  IDiag  1:
 RMSU=  5.88D-07    CP:  8.08D-01  7.83D-01  2.88D-01  9.34D-01  6.89D-01
                    CP:  8.03D-01  9.65D-01  1.03D+00  8.51D-01  8.72D-01
                    CP:  7.58D-01
 E= -1439.76845237559     Delta-E=       -0.000000004584 Rises=F Damp=F
 DIIS: error= 1.04D-06 at cycle  12 NSaved=  12.
 NSaved=12 IEnMin=12 EnMin= -1439.76845237559     IErMin=12 ErrMin= 1.04D-06
 ErrMax= 1.04D-06  0.00D+00 EMaxC= 1.00D-01 BMatC= 1.03D-09 BMatP= 5.73D-09
 IDIUse=1 WtCom= 1.00D+00 WtEn= 0.00D+00
 Coeff-Com: -0.435D-05 0.703D-05 0.138D-04-0.207D-03-0.448D-03-0.755D-03
 Coeff-Com: -0.314D-02-0.569D-02 0.209D-01 0.311D-01 0.310D+00 0.648D+00
 Coeff:     -0.435D-05 0.703D-05 0.138D-04-0.207D-03-0.448D-03-0.755D-03
 Coeff:     -0.314D-02-0.569D-02 0.209D-01 0.311D-01 0.310D+00 0.648D+00
 Gap=     0.123 Goal=   None    Shift=    0.000
 RMSDP=6.29D-07 MaxDP=1.18D-04 DE=-4.58D-09 OVMax= 1.14D-05

 Cycle  13  Pass 1  IDiag  1:
 RMSU=  2.13D-07    CP:  8.08D-01  7.83D-01  2.88D-01  9.34D-01  6.89D-01
                    CP:  8.03D-01  9.66D-01  1.03D+00  8.59D-01  8.69D-01
                    CP:  8.51D-01  7.22D-01
 E= -1439.76845237654     Delta-E=       -0.000000000950 Rises=F Damp=F
 DIIS: error= 2.82D-07 at cycle  13 NSaved=  13.
 NSaved=13 IEnMin=13 EnMin= -1439.76845237654     IErMin=13 ErrMin= 2.82D-07
 ErrMax= 2.82D-07  0.00D+00 EMaxC= 1.00D-01 BMatC= 9.02D-11 BMatP= 1.03D-09
 IDIUse=1 WtCom= 1.00D+00 WtEn= 0.00D+00
 Coeff-Com: -0.495D-06 0.473D-06 0.612D-05-0.348D-04-0.802D-04-0.236D-03
 Coeff-Com: -0.170D-02-0.405D-02 0.199D-02 0.158D-05 0.131D+00 0.349D+00
 Coeff-Com:  0.524D+00
 Coeff:     -0.495D-06 0.473D-06 0.612D-05-0.348D-04-0.802D-04-0.236D-03
 Coeff:     -0.170D-02-0.405D-02 0.199D-02 0.158D-05 0.131D+00 0.349D+00
 Coeff:      0.524D+00
 Gap=     0.123 Goal=   None    Shift=    0.000
 RMSDP=1.26D-07 MaxDP=1.62D-05 DE=-9.50D-10 OVMax= 3.25D-06

 Cycle  14  Pass 1  IDiag  1:
 RMSU=  5.12D-08    CP:  8.08D-01  7.83D-01  2.88D-01  9.34D-01  6.89D-01
                    CP:  8.03D-01  9.66D-01  1.03D+00  8.59D-01  8.71D-01
                    CP:  8.46D-01  7.84D-01  9.23D-01
 E= -1439.76845237693     Delta-E=       -0.000000000385 Rises=F Damp=F
 DIIS: error= 1.16D-07 at cycle  14 NSaved=  14.
 NSaved=14 IEnMin=14 EnMin= -1439.76845237693     IErMin=14 ErrMin= 1.16D-07
 ErrMax= 1.16D-07  0.00D+00 EMaxC= 1.00D-01 BMatC= 1.27D-11 BMatP= 9.02D-11
 IDIUse=1 WtCom= 1.00D+00 WtEn= 0.00D+00
 Coeff-Com: -0.241D-06 0.500D-06 0.175D-05 0.299D-05 0.143D-05-0.318D-04
 Coeff-Com: -0.450D-03-0.122D-02-0.993D-03-0.339D-02 0.283D-01 0.102D+00
 Coeff-Com:  0.304D+00 0.571D+00
 Coeff:     -0.241D-06 0.500D-06 0.175D-05 0.299D-05 0.143D-05-0.318D-04
 Coeff:     -0.450D-03-0.122D-02-0.993D-03-0.339D-02 0.283D-01 0.102D+00
 Coeff:      0.304D+00 0.571D+00
 Gap=     0.123 Goal=   None    Shift=    0.000
 RMSDP=6.17D-08 MaxDP=1.20D-05 DE=-3.85D-10 OVMax= 9.62D-07

 Cycle  15  Pass 1  IDiag  1:
 RMSU=  2.37D-08    CP:  8.08D-01  7.83D-01  2.88D-01  9.34D-01  6.89D-01
                    CP:  8.03D-01  9.66D-01  1.03D+00  8.59D-01  8.71D-01
                    CP:  8.49D-01  7.87D-01  9.38D-01  9.40D-01
 E= -1439.76845237710     Delta-E=       -0.000000000174 Rises=F Damp=F
 DIIS: error= 5.12D-08 at cycle  15 NSaved=  15.
 NSaved=15 IEnMin=15 EnMin= -1439.76845237710     IErMin=15 ErrMin= 5.12D-08
 ErrMax= 5.12D-08  0.00D+00 EMaxC= 1.00D-01 BMatC= 2.67D-12 BMatP= 1.27D-11
 IDIUse=1 WtCom= 1.00D+00 WtEn= 0.00D+00
 Coeff-Com:  0.803D-07-0.808D-07 0.269D-06 0.818D-05 0.150D-04 0.854D-05
 Coeff-Com: -0.115D-03-0.396D-03-0.124D-02-0.259D-02 0.166D-02 0.221D-01
 Coeff-Com:  0.136D+00 0.372D+00 0.472D+00
 Coeff:      0.803D-07-0.808D-07 0.269D-06 0.818D-05 0.150D-04 0.854D-05
 Coeff:     -0.115D-03-0.396D-03-0.124D-02-0.259D-02 0.166D-02 0.221D-01
 Coeff:      0.136D+00 0.372D+00 0.472D+00
 Gap=     0.123 Goal=   None    Shift=    0.000
 RMSDP=2.21D-08 MaxDP=1.99D-06 DE=-1.74D-10 OVMax= 3.69D-07

 Cycle  16  Pass 1  IDiag  1:
 RMSU=  1.50D-08    CP:  8.08D-01  7.83D-01  2.88D-01  9.34D-01  6.89D-01
                    CP:  8.03D-01  9.66D-01  1.03D+00  8.59D-01  8.71D-01
                    CP:  8.50D-01  7.87D-01  9.53D-01  1.00D+00  9.24D-01
 E= -1439.76845237699     Delta-E=        0.000000000113 Rises=F Damp=F
 DIIS: error= 1.12D-08 at cycle  16 NSaved=  16.
 NSaved=16 IEnMin=15 EnMin= -1439.76845237710     IErMin=16 ErrMin= 1.12D-08
 ErrMax= 1.12D-08  0.00D+00 EMaxC= 1.00D-01 BMatC= 1.33D-13 BMatP= 2.67D-12
 IDIUse=1 WtCom= 1.00D+00 WtEn= 0.00D+00
 Coeff-Com:  0.229D-07-0.467D-08-0.554D-07 0.284D-05 0.550D-05 0.781D-05
 Coeff-Com:  0.126D-04 0.355D-05-0.307D-03-0.537D-03-0.279D-02-0.317D-02
 Coeff-Com:  0.232D-01 0.900D-01 0.224D+00 0.670D+00
 Coeff:      0.229D-07-0.467D-08-0.554D-07 0.284D-05 0.550D-05 0.781D-05
 Coeff:      0.126D-04 0.355D-05-0.307D-03-0.537D-03-0.279D-02-0.317D-02
 Coeff:      0.232D-01 0.900D-01 0.224D+00 0.670D+00
 Gap=     0.123 Goal=   None    Shift=    0.000
 RMSDP=1.71D-08 MaxDP=2.04D-06 DE= 1.13D-10 OVMax= 1.13D-07

 Cycle  17  Pass 1  IDiag  1:
 RMSU=  1.48D-08    CP:  8.08D-01  7.83D-01  2.88D-01  9.34D-01  6.89D-01
                    CP:  8.03D-01  9.66D-01  1.03D+00  8.59D-01  8.71D-01
                    CP:  8.50D-01  7.87D-01  9.71D-01  9.80D-01  1.13D+00
                    CP:  1.18D+00
 E= -1439.76845237695     Delta-E=        0.000000000035 Rises=F Damp=F
 DIIS: error= 6.52D-09 at cycle  17 NSaved=  17.
 NSaved=17 IEnMin=15 EnMin= -1439.76845237710     IErMin=17 ErrMin= 6.52D-09
 ErrMax= 6.52D-09  0.00D+00 EMaxC= 1.00D-01 BMatC= 2.45D-14 BMatP= 1.33D-13
 IDIUse=1 WtCom= 1.00D+00 WtEn= 0.00D+00
 Coeff-Com:  0.380D-08 0.843D-08-0.470D-07 0.886D-06 0.181D-05 0.373D-05
 Coeff-Com:  0.181D-04 0.392D-04-0.662D-04-0.808D-04-0.186D-02-0.408D-02
 Coeff-Com:  0.621D-03 0.174D-01 0.868D-01 0.394D+00 0.507D+00
 Coeff:      0.380D-08 0.843D-08-0.470D-07 0.886D-06 0.181D-05 0.373D-05
 Coeff:      0.181D-04 0.392D-04-0.662D-04-0.808D-04-0.186D-02-0.408D-02
 Coeff:      0.621D-03 0.174D-01 0.868D-01 0.394D+00 0.507D+00
 Gap=     0.123 Goal=   None    Shift=    0.000
 RMSDP=2.18D-08 MaxDP=2.17D-06 DE= 3.46D-11 OVMax= 4.60D-08

 Cycle  18  Pass 1  IDiag  1:
 RMSU=  1.60D-08    CP:  8.08D-01  7.83D-01  2.88D-01  9.34D-01  6.89D-01
                    CP:  8.03D-01  9.66D-01  1.03D+00  8.60D-01  8.70D-01
                    CP:  8.49D-01  7.87D-01  9.75D-01  9.85D-01  1.14D+00
                    CP:  1.89D+00  1.18D+00
 E= -1439.76845237703     Delta-E=       -0.000000000079 Rises=F Damp=F
 DIIS: error= 2.59D-09 at cycle  18 NSaved=  18.
 NSaved=18 IEnMin=15 EnMin= -1439.76845237710     IErMin=18 ErrMin= 2.59D-09
 ErrMax= 2.59D-09  0.00D+00 EMaxC= 1.00D-01 BMatC= 3.42D-15 BMatP= 2.45D-14
 IDIUse=1 WtCom= 1.00D+00 WtEn= 0.00D+00
 Large coefficients: NSaved= 18 BigCof=    0.00 CofMax=   10.00 Det=-6.38D-15
 Inversion failed.  Reducing to 17 matrices.
 Large coefficients: NSaved= 17 BigCof=    0.00 CofMax=   10.00 Det=-6.44D-15
 Inversion failed.  Reducing to 16 matrices.
 Coeff-Com:  0.664D-08 0.295D-06 0.606D-06 0.925D-06 0.453D-05 0.953D-05
 Coeff-Com: -0.272D-04-0.306D-04-0.658D-03-0.149D-02-0.791D-03 0.310D-02
 Coeff-Com:  0.296D-01 0.163D+00 0.285D+00 0.523D+00
 Coeff:      0.664D-08 0.295D-06 0.606D-06 0.925D-06 0.453D-05 0.953D-05
 Coeff:     -0.272D-04-0.306D-04-0.658D-03-0.149D-02-0.791D-03 0.310D-02
 Coeff:      0.296D-01 0.163D+00 0.285D+00 0.523D+00
 Gap=     0.123 Goal=   None    Shift=    0.000
 RMSDP=2.44D-08 MaxDP=3.04D-06 DE=-7.91D-11 OVMax= 1.50D-08

 Cycle  19  Pass 1  IDiag  1:
 RMSU=  1.30D-08    CP:  8.08D-01  7.83D-01  2.88D-01  9.34D-01  6.89D-01
                    CP:  8.03D-01  9.66D-01  1.03D+00  8.60D-01  8.70D-01
                    CP:  8.49D-01  7.86D-01  9.83D-01  9.01D-01  1.20D+00
                    CP:  2.19D+00  2.03D+00  1.41D+00
 E= -1439.76845237719     Delta-E=       -0.000000000156 Rises=F Damp=F
 DIIS: error= 4.11D-09 at cycle  19 NSaved=  17.
 NSaved=17 IEnMin=17 EnMin= -1439.76845237719     IErMin=16 ErrMin= 2.59D-09
 ErrMax= 4.11D-09  0.00D+00 EMaxC= 1.00D-01 BMatC= 3.20D-15 BMatP= 3.42D-15
 IDIUse=1 WtCom= 1.00D+00 WtEn= 0.00D+00
 Large coefficients: NSaved= 17 BigCof=    0.00 CofMax=   10.00 Det=-3.07D-15
 Inversion failed.  Reducing to 16 matrices.
 Large coefficients: NSaved= 16 BigCof=    0.00 CofMax=   10.00 Det=-3.10D-15
 Inversion failed.  Reducing to 15 matrices.
 Coeff-Com:  0.895D-08 0.148D-06 0.303D-05 0.884D-05-0.381D-05 0.745D-05
 Coeff-Com: -0.475D-03-0.120D-02-0.115D-02 0.102D-02 0.237D-01 0.143D+00
 Coeff-Com:  0.262D+00 0.498D+00 0.754D-01
 Coeff:      0.895D-08 0.148D-06 0.303D-05 0.884D-05-0.381D-05 0.745D-05
 Coeff:     -0.475D-03-0.120D-02-0.115D-02 0.102D-02 0.237D-01 0.143D+00
 Coeff:      0.262D+00 0.498D+00 0.754D-01
 Gap=     0.123 Goal=   None    Shift=    0.000
 RMSDP=5.13D-09 MaxDP=5.22D-07 DE=-1.56D-10 OVMax= 1.40D-09

 Error on total polarization charges =  0.02157
 SCF Done:  E(RN12SX) =  -1439.76845238     A.U. after   19 cycles
            NFock= 19  Conv=0.51D-08     -V/T= 2.0056
 KE= 1.431712408946D+03 PE=-9.662505188914D+03 EE= 3.636318164945D+03
 Leave Link  502 at Sat Dec 18 09:10:11 2021, MaxMem=  6710886400 cpu:     15639.3
 (Enter /usr/local/gqt/g09/l601.exe)
 Copying SCF densities to generalized density rwf, IOpCl= 0 IROHF=0.

 **********************************************************************

            Population analysis using the SCF density.

 **********************************************************************

 Orbital symmetries:
       Occupied  (A) (A) (A) (A) (A) (A) (A) (A) (A) (A) (A) (A)
                 (A) (A) (A) (A) (A) (A) (A) (A) (A) (A) (A) (A)
                 (A) (A) (A) (A) (A) (A) (A) (A) (A) (A) (A) (A)
                 (A) (A) (A) (A) (A) (A) (A) (A) (A) (A) (A) (A)
                 (A) (A) (A) (A) (A) (A) (A) (A) (A) (A) (A) (A)
                 (A) (A) (A) (A) (A) (A) (A) (A) (A) (A) (A) (A)
                 (A) (A) (A) (A) (A) (A) (A) (A) (A) (A) (A) (A)
                 (A) (A) (A) (A) (A) (A) (A) (A) (A) (A) (A) (A)
                 (A) (A) (A) (A) (A) (A) (A) (A) (A) (A) (A) (A)
                 (A) (A) (A) (A) (A) (A) (A) (A) (A) (A)
       Virtual   (A) (A) (A) (A) (A) (A) (A) (A) (A) (A) (A) (A)
                 (A) (A) (A) (A) (A) (A) (A) (A) (A) (A) (A) (A)
                 (A) (A) (A) (A) (A) (A) (A) (A) (A) (A) (A) (A)
                 (A) (A) (A) (A) (A) (A) (A) (A) (A) (A) (A) (A)
                 (A) (A) (A) (A) (A) (A) (A) (A) (A) (A) (A) (A)
                 (A) (A) (A) (A) (A) (A) (A) (A) (A) (A) (A) (A)
                 (A) (A) (A) (A) (A) (A) (A) (A) (A) (A) (A) (A)
                 (A) (A) (A) (A) (A) (A) (A) (A) (A) (A) (A) (A)
                 (A) (A) (A) (A) (A) (A) (A) (A) (A) (A) (A) (A)
                 (A) (A) (A) (A) (A) (A) (A) (A) (A) (A) (A) (A)
                 (A) (A) (A) (A) (A) (A) (A) (A) (A) (A) (A) (A)
                 (A) (A) (A) (A) (A) (A) (A) (A) (A) (A) (A) (A)
                 (A) (A) (A) (A) (A) (A) (A) (A) (A) (A) (A) (A)
                 (A) (A) (A) (A) (A) (A) (A) (A) (A) (A) (A) (A)
                 (A) (A) (A) (A) (A) (A) (A) (A) (A) (A) (A) (A)
                 (A) (A) (A) (A) (A) (A) (A) (A) (A) (A) (A) (A)
                 (A) (A) (A) (A) (A) (A) (A) (A) (A) (A) (A) (A)
                 (A) (A) (A) (A) (A) (A) (A) (A) (A) (A) (A) (A)
                 (A) (A) (A) (A) (A) (A) (A) (A) (A) (A) (A) (A)
                 (A) (A) (A) (A) (A) (A) (A) (A) (A) (A) (A) (A)
                 (A) (A) (A) (A) (A) (A) (A) (A) (A) (A) (A) (A)
                 (A) (A) (A) (A) (A) (A) (A) (A) (A) (A) (A) (A)
                 (A) (A) (A) (A) (A) (A) (A) (A) (A) (A) (A) (A)
                 (A) (A) (A) (A) (A) (A) (A) (A) (A) (A) (A) (A)
                 (A) (A) (A) (A) (A) (A) (A) (A) (A) (A) (A) (A)
                 (A) (A) (A) (A) (A) (A) (A) (A) (A) (A) (A) (A)
                 (A) (A) (A) (A) (A) (A) (A) (A) (A) (A) (A) (A)
                 (A) (A) (A) (A) (A) (A) (A) (A) (A) (A) (A) (A)
                 (A) (A) (A) (A) (A) (A) (A) (A) (A) (A) (A) (A)
                 (A) (A) (A) (A) (A) (A) (A) (A) (A) (A) (A) (A)
                 (A) (A) (A) (A) (A) (A) (A) (A) (A) (A) (A) (A)
                 (A) (A) (A) (A) (A) (A) (A) (A) (A) (A) (A) (A)
                 (A) (A) (A) (A) (A) (A) (A) (A) (A) (A) (A) (A)
                 (A) (A) (A) (A) (A) (A) (A) (A) (A) (A) (A) (A)
                 (A) (A) (A) (A) (A) (A) (A) (A) (A) (A) (A) (A)
                 (A) (A) (A) (A) (A) (A) (A) (A) (A) (A) (A) (A)
                 (A) (A) (A) (A) (A) (A) (A) (A) (A) (A) (A) (A)
                 (A) (A) (A) (A) (A) (A) (A) (A) (A) (A) (A) (A)
                 (A) (A) (A) (A) (A) (A) (A) (A) (A) (A) (A) (A)
                 (A) (A) (A) (A) (A) (A) (A) (A) (A) (A) (A) (A)
                 (A) (A) (A) (A) (A) (A) (A) (A) (A) (A) (A) (A)
                 (A) (A) (A) (A) (A) (A) (A) (A) (A) (A) (A) (A)
                 (A) (A) (A) (A) (A) (A) (A) (A) (A) (A) (A) (A)
                 (A) (A) (A) (A) (A) (A) (A) (A) (A) (A) (A) (A)
                 (A) (A) (A) (A) (A) (A) (A) (A) (A) (A) (A) (A)
                 (A) (A) (A) (A) (A) (A) (A) (A) (A) (A) (A) (A)
                 (A) (A) (A) (A) (A) (A) (A) (A) (A) (A) (A) (A)
                 (A) (A) (A) (A) (A) (A) (A) (A) (A) (A) (A) (A)
                 (A) (A) (A) (A) (A) (A) (A) (A) (A) (A) (A) (A)
                 (A) (A) (A) (A) (A) (A) (A) (A) (A) (A) (A) (A)
                 (A) (A) (A) (A) (A) (A) (A) (A) (A) (A) (A) (A)
                 (A) (A) (A) (A) (A) (A) (A) (A) (A) (A) (A) (A)
                 (A) (A) (A) (A) (A) (A) (A) (A) (A) (A) (A) (A)
                 (A) (A) (A) (A) (A) (A) (A) (A) (A) (A) (A) (A)
                 (A) (A) (A) (A) (A) (A) (A) (A) (A) (A) (A) (A)
                 (A) (A) (A) (A) (A) (A) (A) (A) (A) (A) (A) (A)
                 (A) (A) (A) (A) (A) (A) (A) (A) (A) (A) (A) (A)
                 (A) (A) (A) (A) (A) (A) (A) (A) (A) (A) (A) (A)
                 (A) (A) (A) (A) (A) (A) (A) (A) (A) (A) (A) (A)
                 (A) (A) (A) (A) (A) (A) (A) (A) (A) (A) (A) (A)
                 (A) (A) (A) (A) (A) (A) (A) (A) (A) (A) (A) (A)
                 (A) (A) (A) (A) (A) (A) (A) (A) (A) (A) (A) (A)
                 (A) (A) (A) (A) (A) (A) (A) (A) (A) (A) (A) (A)
                 (A) (A) (A) (A) (A) (A) (A) (A) (A) (A) (A) (A)
                 (A) (A) (A) (A) (A) (A) (A) (A)
 The electronic state is 1-A.
 Alpha  occ. eigenvalues --  -19.27353 -19.21635 -19.15488 -19.13617 -14.45951
 Alpha  occ. eigenvalues --  -10.36376 -10.35983 -10.28666 -10.28557 -10.27260
 Alpha  occ. eigenvalues --  -10.26987 -10.25053 -10.24914 -10.24890 -10.24839
 Alpha  occ. eigenvalues --  -10.24385 -10.24343 -10.24255 -10.24110 -10.24099
 Alpha  occ. eigenvalues --  -10.23985 -10.23963 -10.23808 -10.23343 -10.23042
 Alpha  occ. eigenvalues --  -10.22971 -10.22956 -10.22906 -10.22768 -10.22520
 Alpha  occ. eigenvalues --  -10.22381 -10.22231 -10.19855  -1.16909  -1.10489
 Alpha  occ. eigenvalues --   -1.01543  -0.99539  -0.98566  -0.89310  -0.87927
 Alpha  occ. eigenvalues --   -0.87505  -0.82478  -0.82172  -0.78253  -0.77928
 Alpha  occ. eigenvalues --   -0.77169  -0.76932  -0.76524  -0.75602  -0.73910
 Alpha  occ. eigenvalues --   -0.73514  -0.67845  -0.67685  -0.66264  -0.64574
 Alpha  occ. eigenvalues --   -0.62912  -0.62695  -0.61982  -0.61643  -0.59792
 Alpha  occ. eigenvalues --   -0.59600  -0.58424  -0.56570  -0.54155  -0.53593
 Alpha  occ. eigenvalues --   -0.52472  -0.51820  -0.51099  -0.50132  -0.49900
 Alpha  occ. eigenvalues --   -0.48695  -0.48436  -0.47667  -0.47389  -0.47103
 Alpha  occ. eigenvalues --   -0.46496  -0.46110  -0.45578  -0.45428  -0.45052
 Alpha  occ. eigenvalues --   -0.44300  -0.44182  -0.44023  -0.43764  -0.43394
 Alpha  occ. eigenvalues --   -0.42366  -0.42252  -0.41899  -0.39620  -0.39595
 Alpha  occ. eigenvalues --   -0.39250  -0.39190  -0.38096  -0.37377  -0.37300
 Alpha  occ. eigenvalues --   -0.37064  -0.36930  -0.36196  -0.35936  -0.35604
[...]
 562,-0.00000492,-0.00003398,-0.00008845,0.00000412,0.00004426,-0.00000
 666,-0.00000429,-0.00002574,0.00000230,0.00000011,0.00000106,0.0000036
 7,0.00000094,0.00000054,-0.00000007,-0.00000020,0.00000004,0.00000011,
 -0.00000113,0.00000179,0.00000013,0.00000064,-0.00000030,0.00000023,0.
 ,-0.00000026,0.00000009,0.00000018,-0.00000007,-0.00000149,-0.00000085
 ,0.00000108,-0.00000042,-0.00000051,-0.00000003,0.00000130,0.00000065,
 0.00000207,-0.00000052,0.00000011,0.00000004,-0.00000046,-0.00000002,0
 .00000059,0.00000010,-0.00000018,-0.00000094,-0.00000019,0.00000038,-0
 .00000037,0.00000105,0.00000029,-0.00000288,0.00000021,0.00000078,-0.0
 0000240,-0.00000046,-0.00000040,0.00000303,0.00000124,-0.00000018,0.00
 000431,-0.00000199,0.00000025,0.00000203,-0.00000148,0.00000033,-0.000
 00015,-0.00000087,-0.00000012,-0.00000009,0.00003258,-0.00045785,0.000
 02657,-0.00056541,0.00022045,0.00013123,0.00024239,-0.00068817,0.00142
 993,0.00024959,0.00005815,0.00001276,0.00010298,-0.00010255,-0.0000547
 3,0.00002895,0.00005293,-0.00003233,-0.00000649,-0.00002252,0.00000729
 ,0.00000119,0.00000442,-0.00000202,-0.00000215,-0.00002166,0.00000503,
 0.00000107,0.00000307,0.00000215,-0.00000303,-0.00003135,0.00000719,-0
 .00002348,-0.00000511,0.00001644,-0.00000215,-0.00000416,0.00001795,0.
 00003089,-0.00000739,-0.00002770,0.00001273,0.00002551,-0.00000210,0.0
 0000314,-0.00000519,-0.00000279,0.00001002,0.00003045,-0.00000940,0.00
 000561,0.00000431,-0.00000104,-0.00000287,-0.00000327,0.00000214,-0.00
 000042,-0.00000252,0.00000081,0.00000166,-0.00000510,0.00000077,-0.000
 00366,0.00000579,0.00000013,-0.00001503,-0.00003047,-0.00001686,0.0000
 0604,0.00000671,-0.00000014,0.00000529,0.00000045,-0.00000040,0.000007
 37,-0.00000081,-0.00000302,-0.00000105,-0.00000267,0.00000642,0.004032
 51,-0.00288245,0.00006860,0.00019139,-0.00603864,0.02830830,-0.0000410
 2,-0.00106390,-0.00050863,0.00743193,-0.09198663,0.09593039,0.00353063
 ,-0.00061754,-0.00278906,0.00015173,0.01029020,-0.01845019,-0.00180813
 ,0.00054108,-0.00058420,-0.00035117,-0.00002597,0.00001451,-0.01148238
 ,0.09221561,-0.00006536,-0.00000022,0.00001783,0.00005008,0.00000043,-
 0.00002523,0.00000083,-0.00000523,0.00001148,-0.00000138,0.00000173,-0
 .00000146,-0.00000202,0.00000248,0.00000375,-0.00000059,0.00000060,0.0
 0000089,-0.00000164,0.00000050,0.00000039,-0.00000136,-0.00000050,-0.0
 0000112,-0.00000033,-0.00000008,-0.00000036,0.00000043,0.00000009,0.00
 000026,0.00000181,0.00000091,-0.00000061,0.00000047,-0.00000005,-0.000
 00026,-0.00000077,-0.00000106,-0.00000080,0.00000065,-0.00000049,0.000
 00047,0.00000048,0.00000031,-0.00000012,-0.00000039,-0.00000005,0.0000
 0004,0.00000036,-0.00000015,0.00000050,0.00000173,-0.00000152,0.000000
 16,0.00000088,-0.00000029,0.00000002,-0.00000195,0.00000147,-0.0000000
 1,0.00000074,0.00000218,-0.00000222,0.00000128,-0.00000042,-0.00000106
 ,0.00000037,-0.00000010,-0.00000014,0.00000165,0.00000058,0.00000004,-
 0.00004677,0.00015227,-0.00001757,0.00031172,-0.00010666,-0.00010334,-
 0.00000667,0.00007833,-0.00008907,-0.00011104,-0.00001445,0.00001903,-
 0.00003405,0.00003928,-0.00000211,-0.00001550,-0.00003154,0.00001425,0
 .00000648,0.00001183,-0.00000194,-0.00000333,-0.00000338,0.00000128,0.
 00000234,0.00001375,-0.00000422,0.00000091,-0.00000097,0.00000252,-0.0
 0000223,0.00001621,-0.00000760,-0.00004985,0.00001553,0.00001551,-0.00
 002380,0.00000199,-0.00003056,0.00001037,0.00001178,0.00001012,-0.0000
 2177,0.00001550,0.00001439,-0.00002671,-0.00002491,0.00001240,0.000033
 69,-0.00002962,-0.00001964,-0.00000411,-0.00000226,0.00000026,0.000001
 79,0.00000191,-0.00000153,0.00000033,0.00000162,-0.00000035,-0.0000009
 0,0.00000296,-0.00000045,0.00000178,-0.00000256,0.00000016,0.00003449,
 0.00001252,0.00002050,-0.00000549,-0.00000597,-0.00000334,-0.00000412,
 0.00000052,0.00000219,-0.00000471,0.00000046,0.00000069,0.00000122,0.0
 0000168,-0.00000168,0.00060852,0.00033731,0.00216656,0.00100244,-0.000
 83807,-0.00089750,0.00001449,-0.00061683,0.00033188,0.00037858,0.09626
 760,-0.31450571,0.00240526,-0.00318174,-0.00152385,-0.00133432,0.01062
 932,-0.01616688,-0.00065959,-0.00008856,0.00060928,-0.00011877,0.00004
 166,-0.00007736,-0.00167102,-0.10298303,0.33015866,-0.00002348,-0.0000
 0871,0.00000963,0.00002512,0.00001569,-0.00002638,-0.00000191,0.000000
 20,0.00002829,-0.00000194,0.00000395,-0.00000200,0.00000198,-0.0000179
 3,0.00000869,-0.00000086,0.00000096,0.00000093,-0.00000209,-0.00000220
 ,0.00000262,-0.00000290,-0.00000152,-0.00000210,-0.00000052,-0.0000004
 1,-0.00000010,0.00000088,0.00000072,-0.00000021,0.00000036,0.00000007,
 -0.00000034,0.00000019,0.00000062,-0.00000007,0.00000017,-0.00000216,0
 .00000047,-0.00000074,0.00000001,-0.00000035,0.,0.00000046,0.00000174,
 0.00000001,-0.00000043,-0.00000132,0.00000067,0.00000094,0.00000042,0.
 00000245,0.00000110,-0.00000337,0.00000135,0.00000322,-0.00000472,-0.0
 0000154,-0.00000335,0.00000575,0.00000230,-0.00000507,-0.00000060,0.00
 000122,-0.00000048,-0.00000156,-0.00000434,-0.00000051,0.00000150,-0.0
 0000130,0.00000128,0.00000033,-0.00009780,0.00019688,-0.00003895,0.000
 37245,-0.00011452,-0.00002043,-0.00005376,0.00043180,0.00036504,-0.000
 13143,-0.00009195,-0.00004947,-0.00001239,-0.00002150,0.00001927,-0.00
 000780,-0.00001679,0.00000818,0.00000281,0.00000914,-0.00000210,-0.000
 00173,-0.00000289,-0.00000167,-0.00000025,0.00000699,-0.00000181,-0.00
 000045,0.00000113,-0.00000208,0.00000057,0.00000953,-0.00000102,-0.000
 08280,-0.00001600,0.00001911,-0.00009777,0.00001137,-0.00002885,0.0000
 4095,0.00001316,-0.00001770,-0.00002980,0.00003833,0.00003112,-0.00003
 967,-0.00004749,0.00000661,0.00005004,-0.00002687,-0.00002992,-0.00000
 155,-0.00000229,0.00000171,0.00000108,0.00000119,-0.00000042,0.0000003
 7,0.00000111,0.00000032,-0.00000055,0.00000184,-0.00000016,0.00000210,
 -0.00000243,0.00000114,0.00002331,0.00000595,0.00002239,-0.00000482,-0
 .00000411,-0.00000085,-0.00000222,0.00000057,0.00000233,-0.00000401,0.
 ,0.00000065,0.00000366,-0.00000031,0.00000048,0.00626674,0.00345832,-0
 .00017565,-0.00101838,-0.00038864,-0.00031585,0.00057083,0.00553642,0.
 00842754,0.00651390,0.00194107,0.00049886,-0.07437032,0.06176049,0.075
 85051,0.00412386,0.00035870,-0.00105294,-0.00078321,-0.00030473,-0.000
 07541,-0.00360379,-0.00181379,-0.00077777,0.00000429,0.00001535,-0.000
 05396,0.06589635,0.00014968,-0.00001340,-0.00005240,-0.00010301,0.0000
 3065,0.00006971,-0.00002145,-0.00003097,-0.00004162,0.00000317,0.00000
 576,0.00000409,0.00000620,-0.00000661,0.00001764,-0.00000025,0.0000007
 6,0.00000071,0.00000021,-0.00000091,-0.00000132,-0.00000263,-0.0000011
 4,-0.00000221,-0.00000108,-0.00000012,0.00000016,0.00000074,0.00000057
 ,-0.00000008,0.00000028,-0.00000060,-0.00000017,-0.00000004,0.00000076
 ,0.,0.00000168,-0.00000122,0.00000006,-0.00000041,0.00000006,-0.000000
 14,0.00000092,0.00000037,0.00000086,-0.00000010,-0.00000048,-0.0000002
 3,0.00000009,0.00000109,0.00000022,-0.00000305,0.00000230,0.00000193,-
 0.00000065,0.00000189,0.00000063,0.00000325,-0.00000421,-0.00000142,0.
 00000378,0.00000043,0.00000820,-0.00000335,-0.00000164,0.00000358,-0.0
 0000574,-0.00000038,-0.00000118,-0.00000048,0.00000276,-0.00000048,0.0
 0016297,-0.00044276,0.00018320,-0.00065740,-0.00004672,0.00007079,0.00
 107490,-0.00091404,-0.00121613,0.00007559,0.00010630,-0.00010081,0.000
 14810,-0.00003870,-0.00001702,0.00002247,0.00005952,-0.00002005,-0.000
 00492,-0.00002664,0.00001446,0.00000070,0.00000446,-0.00000350,-0.0000
 0002,-0.00002248,0.00000640,-0.00000374,0.00000099,-0.00000075,-0.0000
 0157,-0.00002797,0.00000877,0.00000394,-0.00000639,-0.00000901,0.00000
 206,-0.00001294,0.00000992,0.00003331,-0.00001532,-0.00001760,0.000014
 18,0.00001925,-0.00000635,0.00000914,0.00000323,0.00000048,-0.00000138
 ,0.00003386,-0.00000078,0.00000530,0.00000363,-0.00000462,-0.00000338,
 -0.00000374,0.00000168,-0.00000036,-0.00000275,0.00000085,0.00000182,-
 0.00000514,0.00000038,-0.00000431,0.00000630,0.00000035,-0.00003570,-0
 .00002753,-0.00000876,0.00000453,0.00000660,-0.00000170,0.00000411,0.0
 0000080,-0.00000326,0.00000727,-0.00000063,-0.00000321,-0.00000307,-0.
 00000185,0.00000474,0.00340010,-0.00228864,0.00256076,-0.00029728,-0.0
 0069928,0.00075144,0.00959414,-0.01201078,-0.02311937,0.00204675,0.000
 95131,0.00301754,0.06168120,-0.15036358,-0.12351667,-0.00402433,0.0102
 4885,0.01078028,-0.00030188,-0.00007809,-0.00014361,-0.00195472,0.0005
 7177,-0.00010985,-0.00019323,0.00033956,0.00052845,-0.06926506,0.15460
 964,0.00003429,-0.00000064,-0.00000852,-0.00002303,0.00000470,0.000005
 64,-0.00000551,0.00000170,0.00000502,0.00000115,0.00000213,0.00000087,
 0.00000600,0.00000867,-0.00000801,-0.00000077,0.00000092,0.00000066,0.
 00000076,-0.00000042,0.00000022,-0.00000189,-0.00000095,-0.00000140,-0
 .00000030,-0.00000029,0.00000021,0.00000053,0.00000034,-0.00000014,0.0
 0000044,-0.00000008,-0.00000033,-0.00000002,0.00000059,-0.00000005,0.0
 0000102,-0.00000072,0.00000015,-0.00000065,-0.00000004,-0.00000039,0.0
 0000002,-0.00000093,0.00000114,0.00000019,-0.00000042,-0.00000023,-0.0
 0000017,0.00000054,0.00000008,-0.00000190,0.00000137,0.00000033,-0.000
 00095,0.00000129,-0.00000094,0.00000281,-0.00000282,0.00000066,0.00000
 149,-0.00000601,0.00000125,-0.00000034,0.00000059,0.00000036,-0.000002
 34,0.00000204,-0.00000078,-0.00000212,0.00000053,0.00000034,-0.0000202
 3,-0.00000378,-0.00005244,-0.00004443,0.00007603,0.00003505,-0.0002248
 7,0.00034946,0.00036699,0.00001590,-0.00006745,-0.00003949,0.00000180,
 -0.00001766,0.00001864,0.00000782,0.00001116,-0.00000749,-0.00000115,-
 0.00000391,0.00000332,0.00000019,0.00000047,-0.00000097,-0.00000020,-0
 .00000459,0.00000090,0.00000028,0.00000073,0.00000038,-0.00000232,-0.0
 0000541,0.00000202,-0.00000628,-0.00000004,-0.00000384,-0.00001018,0.0
 0000632,0.00000646,0.00001451,-0.00000861,-0.00000341,-0.00000172,0.00
 000833,0.00000109,-0.00000055,-0.00000518,-0.00000059,0.00000268,0.000
 00233,0.00000071,0.00000174,0.00000081,-0.00000051,-0.00000062,-0.0000
 0058,0.00000040,0.00000003,-0.00000060,0.00000028,0.00000052,-0.000001
 13,0.,-0.00000053,0.00000079,0.00000019,-0.00002427,-0.00000861,-0.000
 00952,0.00000072,0.00000100,-0.00000098,0.00000151,-0.00000013,-0.0000
 0134,0.00000128,-0.00000026,-0.00000077,-0.00000020,-0.00000084,-0.000
 00007,0.00017650,0.00223549,0.00122326,-0.00043812,0.00077617,-0.00017
 574,-0.00297958,0.00612377,0.00827559,0.00032510,0.00342816,-0.0039885
 4,0.07596344,-0.12382785,-0.22432475,0.01020761,-0.01840670,-0.0162049
 7,-0.00007249,-0.00016362,-0.00000249,-0.00049721,-0.00062675,0.000545
 17,0.00045562,-0.00088210,-0.00086454,-0.08212605,0.13113798,0.2340758
 1,-0.00001971,-0.00000201,0.00000786,0.00001417,0.00000185,-0.00001669
 ,0.00000215,-0.00000157,0.00001348,-0.00000121,0.00000192,-0.00000304,
 -0.00000202,-0.00000161,0.00000303,-0.00000101,0.00000093,0.00000077,-
 0.00000181,-0.00000209,0.00000273,-0.00000160,-0.00000072,-0.00000142,
 -0.00000017,-0.00000034,-0.00000019,0.00000078,0.00000045,-0.00000019,
 -0.00000041,0.00000003,0.00000019,0.00000005,0.00000038,-0.00000009,0.
 00000008,-0.00000132,0.00000023,-0.00000101,-0.00000022,-0.00000026,-0
 .00000008,-0.00000017,0.00000160,0.00000029,-0.00000056,-0.00000134,0.
 00000069,0.00000065,0.00000022,0.00000312,0.00000070,-0.00000355,0.000
 00142,0.00000269,-0.00000443,-0.00000215,-0.00000219,0.00000549,0.0000
 0111,0.00000074,-0.00000076,0.00000074,-0.00000020,-0.00000119,-0.0000
 0129,0.00000108,-0.00000029,0.00000068,0.00000072,0.00000001,0.0000005
 7,0.00010966,0.00003783,0.00003487,0.00006126,-0.00013622,-0.00108250,
 -0.00031854,-0.00030494,0.00004579,-0.00008881,0.00006617,-0.00010069,
 0.00002191,0.00004588,0.00000286,-0.00002205,-0.00000579,0.00000400,0.
 00000440,-0.00000401,-0.00000166,0.00000012,0.00000178,0.00000174,0.00
 000503,-0.00000353,0.00000127,-0.00000224,0.00000410,-0.00000489,0.000
 00449,-0.00000705,0.00003134,0.00001335,0.00000166,-0.00000764,-0.0000
 0328,-0.00001898,0.00000424,0.00000489,0.00001417,-0.00000476,-0.00000
 204,0.00000027,-0.00000180,0.00000194,0.00000426,-0.00000590,-0.000006
 72,0.00000593,-0.00000106,-0.00000076,0.00000038,0.00000070,0.00000050
 ,-0.00000026,0.00000015,0.00000056,-0.00000006,-0.00000030,0.00000087,
 0.00000039,0.00000072,-0.00000070,0.00000003,0.00002201,0.00000758,0.0
 0000530,-0.00000457,-0.00000192,-0.00000095,-0.00000212,0.00000072,-0.
 00000002,-0.00000113,-0.00000023,0.00000035,0.00000040,-0.00000002,-0.
 00000055,-0.00043221,-0.00051228,0.00022017,0.00601368,0.00283328,0.00
 256041,0.00648160,0.00198912,0.00103080,0.00068165,0.00937640,-0.00288
 937,0.00399130,-0.00065518,0.00124701,-0.07462189,0.09634738,-0.015403
 32,-0.00007457,0.00039159,-0.00017203,0.00004712,-0.00004491,0.0000659
 0,-0.00347535,-0.00180956,-0.00060167,-0.00352388,-0.00156798,-0.00073
 498,0.06598809,0.00006634,0.00000268,-0.00001714,-0.00005157,0.0000012
 1,0.00002375,-0.00000025,0.00000780,-0.00000761,0.00000095,-0.00000113
 ,0.00000058,0.00000441,-0.00000478,-0.00000597,-0.00000025,0.00000035,
 -0.00000019,0.00000153,-0.00000143,0.00000007,-0.00000050,-0.00000040,
 -0.00000019,-0.00000002,-0.00000017,0.00000046,0.00000019,0.00000023,-
 0.00000038,-0.00000130,-0.00000082,0.00000032,-0.00000037,0.00000065,0
 .00000023,0.00000140,0.00000031,0.00000098,-0.00000156,0.00000037,-0.0
 0000084,0.00000006,-0.00000084,0.00000131,0.00000055,-0.00000058,-0.00
 000039,-0.00000021,0.00000063,-0.00000025,-0.00000244,0.00000282,-0.00
 000047,-0.00000099,0.00000205,-0.00000133,0.00000346,-0.00000431,0.000
 00128,0.00000035,-0.00000510,0.00000222,-0.00000131,0.00000034,0.00000
 116,-0.00000223,0.00000093,-0.00000042,-0.00000261,0.00000020,0.000000
 03,0.00006488,-0.00012312,0.00003972,-0.00025119,0.00012689,-0.0000204
 2,-0.00032165,-0.00025415,-0.00004341,0.00008307,-0.00003464,-0.000006
 04,-0.00001351,0.00000066,0.00000841,0.00001247,0.00002401,-0.00001368
 ,-0.00000476,-0.00001216,0.00000044,0.00000329,0.00000370,-0.00000056,
 -0.00000104,-0.00001361,0.00000219,-0.00000144,0.00000006,0.00000172,0
 .00000001,-0.00001389,0.00000230,0.00002984,-0.00000616,-0.00000951,0.
 00001500,-0.00000347,0.00003027,0.00000126,-0.00001547,-0.00000753,0.0
 0001423,-0.00000426,-0.00000515,0.00001461,0.00001417,-0.00001106,-0.0
 0001721,0.00002114,0.00002167,0.00000422,0.00000255,-0.00000055,-0.000
 00187,-0.00000197,0.00000133,-0.00000021,-0.00000163,0.00000041,0.0000
 0099,-0.00000280,0.00000043,-0.00000156,0.00000281,-0.00000017,-0.0000
 3110,-0.00001504,-0.00001630,0.00000248,0.00000417,-0.00000019,0.00000
 388,-0.00000002,-0.00000242,0.00000402,-0.00000071,-0.00000190,-0.0000
 0101,-0.00000174,0.00000096,-0.00041884,0.00055416,-0.00035895,0.00299
 608,0.00075621,-0.00268309,0.00179140,0.00205057,0.00220562,0.00504429
 ,-0.01118534,0.00588514,0.00377330,-0.00539434,-0.00095137,0.09630696,
 -0.30579460,0.05027035,0.00022543,-0.00061842,0.00033113,0.00016089,-0
 .00034446,-0.00011653,-0.00169747,0.00021126,-0.00025303,-0.00166640,0
 .00008417,-0.00013529,-0.10613695,0.31998447,-0.00002832,-0.00001014,0
 .00000562,0.00001843,0.00000343,-0.00001070,0.00000108,-0.00001288,0.0
 0000124,-0.00000075,0.00000134,-0.00000073,-0.00000728,0.00000552,0.00
 000892,-0.00000023,0.,0.00000025,-0.00000074,-0.00000035,0.00000079,0.
 00000018,-0.00000003,0.00000012,0.00000021,0.00000004,-0.00000028,0.00
 000003,-0.00000006,0.00000007,-0.00000015,0.00000032,0.00000007,0.0000
 0025,-0.00000002,0.00000004,-0.00000073,-0.00000065,-0.00000051,0.0000
 0009,0.00000006,0.00000036,-0.00000030,0.00000055,-0.00000003,0.000000
 20,-0.00000008,-0.00000017,0.00000014,-0.00000026,0.00000003,0.0000021
 4,-0.00000076,-0.00000120,0.00000086,-0.00000011,-0.00000130,-0.000002
 55,0.00000123,0.00000169,-0.00000022,0.00000642,0.00000010,0.00000064,
 -0.00000005,-0.00000139,0.00000153,-0.00000030,0.00000068,0.00000322,-
 0.00000001,-0.00000049,-0.00004312,0.00004845,-0.00001360,0.00003287,0
 .00004623,-0.00003570,-0.00019689,0.00000727,0.00020816,0.00002435,0.0
 0000925,0.00004456,-0.00003164,-0.00001044,0.00001189,-0.00000233,-0.0
 0001053,-0.00000197,0.00000302,0.00000332,0.00000125,-0.00000136,-0.00
 000061,-0.00000046,0.00000075,0.00000315,-0.00000001,-0.00000021,-0.00
 000061,-0.00000078,0.00000093,0.00000320,0.00000064,0.00000939,0.00000
 491,0.00000194,0.00000672,-0.00001147,0.00000353,-0.00001015,0.0000031
 4,0.00001015,-0.00000121,-0.00000908,-0.00000557,0.00000600,0.00000663
 ,-0.00000230,-0.00001374,0.00000213,0.00001152,-0.00000155,-0.00000151
 ,-0.00000002,0.00000049,0.00000039,-0.00000022,-0.00000004,0.00000047,
 -0.00000018,-0.00000026,0.00000063,-0.00000007,0.00000010,-0.00000066,
 0.00000004,0.00002142,0.00000045,-0.00000845,0.00000019,-0.00000037,0.
 00000112,0.,0.00000016,0.00000026,0.00000008,-0.00000004,0.00000037,0.
 00000010,-0.00000013,-0.00000079,0.00025572,-0.00038622,-0.00144746,0.
 00242775,-0.00242881,-0.00301909,0.00107637,0.00192178,-0.00487932,0.0
 0854673,-0.02337586,0.00813895,-0.01027845,0.02822917,-0.00092509,-0.0
 1530342,0.05033983,-0.06872392,0.00039067,-0.00108713,0.00028509,-0.00
 048483,0.00127632,-0.00008861,-0.00089151,0.00036750,0.00093709,-0.000
 49944,-0.00078195,0.00113006,0.01496876,-0.05416218,0.06836381\\0.0000
 0867,-0.00000346,-0.00000230,0.00000138,0.00000291,0.00001907,-0.00000
 278,-0.00000604,-0.00003097,0.00000104,-0.00000036,0.00000361,0.000004
 10,0.00000306,0.00000330,0.00000111,0.00000287,0.00000274,-0.00000352,
 -0.00000140,0.00000190,0.00000205,-0.00000036,0.00000028,-0.00000037,0
 .00000330,0.00000041,-0.00000016,0.00000260,0.00000053,0.00000021,0.00
 000051,0.00000148,-0.00000061,0.00000095,0.00000185,-0.00000125,-0.000
 00113,-0.00000039,0.00000012,0.00000195,0.,-0.00000061,0.00000261,-0.0
 0000038,-0.00000064,0.00000182,0.00000162,-0.00000067,0.00000217,0.000
 00036,0.00000148,0.00000514,-0.00000302,0.00000175,0.00000436,0.000001
 49,-0.00000476,0.00000017,0.00000147,-0.00000198,0.00000388,0.00000551
 ,0.00000022,0.00000196,-0.00000076,0.00000080,0.00000168,-0.00000041,-
 0.00000003,0.00000150,0.00000045,0.00000882,0.00000572,-0.00000928,0.0
 0000015,-0.00000467,0.00001641,0.00000374,-0.00001356,-0.00001379,0.00
 000189,0.00001658,0.00000568,-0.00002155,-0.00000177,0.00000190,0.0000
 0068,-0.00000362,0.00000453,-0.00000125,0.00000652,0.00000175,0.000000
 65,-0.00000332,0.00000074,-0.00000300,0.,0.00000124,-0.00000063,-0.000
 00243,0.00000157,-0.00000262,0.00000144,-0.00000044,0.00000481,-0.0000
 0092,-0.00000776,-0.00000142,-0.00000464,0.00000095,0.00000299,-0.0000
 0173,-0.00000277,-0.00000029,-0.00000194,0.00000029,0.00000074,-0.0000
 0284,-0.00000140,-0.00000189,-0.00000153,-0.00000003,-0.00000260,-0.00
 000014,0.00000020,-0.00000166,0.00000103,0.00000214,-0.00000164,-0.000
 00014,0.00000183,-0.00000216,-0.00000095,0.00000099,-0.00000137,-0.000
 00115,0.00000005,0.00000067,-0.00000020,-0.00000148,0.00000136,-0.0000
 0234,-0.00000155,0.00000087,-0.00000341,-0.00000157,0.00000004,-0.0000
 0305,-0.00000072,-0.00000074,-0.00000235,-0.00000009,-0.00000176,0.000
 00304,0.00000153,0.00000115,-0.00000126,-0.00000074,0.00000205,-0.0000
 0299,0.00000168,0.00000116,-0.00000045,-0.00000115,0.00000164,-0.00000
 029,-0.00000241,0.00000101,-0.00000065,-0.00000159,0.00000026,-0.00000
 129,0.00000021,-0.00000005,-0.00000050,-0.00000105,0.00000073,-0.00000
 099,-0.00000126,0.00000167,0.00000031,-0.00000131,0.00000208,-0.000000
 20,-0.00000118\\\@


 IT IS A PROFOUNDLY ERRONEOUS TRUISM ... THAT WE SHOULD CULTIVATE
 THE HABIT OF THINKING OF WHAT WE ARE DOING.
 THE PRECISE OPPOSITE IS THE CASE.
 CIVILIZATION ADVANCES BY EXTENDING THE NUMBER OF IMPORTANT OPERATIONS
 WHICH WE CAN PERFORM WITHOUT THINKING ABOUT THEM.

                                    -- ALFRED NORTH WHITEHEAD
 Job cpu time:       7 days  5 hours 51 minutes 52.9 seconds.
 File lengths (MBytes):  RWF=  10909 Int=      0 D2E=      0 Chk=     83 Scr=      1
 Normal termination of Gaussian 09 at Sun Dec 19 03:17:31 2021.
