 Entering Gaussian System, Link 0=g09
 Input=reag_NHC24_et_new3.gjf
 Output=reag_NHC24_et_new3.log
 Initial command:
 /usr/local/gqt/g09/l1.exe "/usr/local/gqt/lixogaussian/Gau-7326.inp" -scrdir="/usr/local/gqt/lixogaussian/"
 Entering Link 1 = /usr/local/gqt/g09/l1.exe PID=      7328.
  
 Copyright (c) 1988,1990,1992,1993,1995,1998,2003,2009,2013,
            Gaussian, Inc.  All Rights Reserved.
  
 This is part of the Gaussian(R) 09 program.  It is based on
 the Gaussian(R) 03 system (copyright 2003, Gaussian, Inc.),
 the Gaussian(R) 98 system (copyright 1998, Gaussian, Inc.),
 the Gaussian(R) 94 system (copyright 1995, Gaussian, Inc.),
 the Gaussian 92(TM) system (copyright 1992, Gaussian, Inc.),
 the Gaussian 90(TM) system (copyright 1990, Gaussian, Inc.),
 the Gaussian 88(TM) system (copyright 1988, Gaussian, Inc.),
 the Gaussian 86(TM) system (copyright 1986, Carnegie Mellon
 University), and the Gaussian 82(TM) system (copyright 1983,
 Carnegie Mellon University). Gaussian is a federally registered
 trademark of Gaussian, Inc.
  
 This software contains proprietary and confidential information,
 including trade secrets, belonging to Gaussian, Inc.
  
 This software is provided under written license and may be
 used, copied, transmitted, or stored only in accord with that
 written license.
  
 The following legend is applicable only to US Government
 contracts under FAR:
  
                    RESTRICTED RIGHTS LEGEND
  
 Use, reproduction and disclosure by the US Government is
 subject to restrictions as set forth in subparagraphs (a)
 and (c) of the Commercial Computer Software - Restricted
 Rights clause in FAR 52.227-19.
  
 Gaussian, Inc.
 340 Quinnipiac St., Bldg. 40, Wallingford CT 06492
  
  
 ---------------------------------------------------------------
 Warning -- This program may not be used in any manner that
 competes with the business of Gaussian, Inc. or will provide
 assistance to any competitor of Gaussian, Inc.  The licensee
 of this program is prohibited from giving any competitor of
 Gaussian, Inc. access to this program.  By using this program,
 the user acknowledges that Gaussian, Inc. is engaged in the
 business of creating and licensing software in the field of
 computational chemistry and represents and warrants to the
 licensee that it is not a competitor of Gaussian, Inc. and that
 it will not use this program in any manner prohibited above.
 ---------------------------------------------------------------
  

 Cite this work as:
 Gaussian 09, Revision D.01,
 M. J. Frisch, G. W. Trucks, H. B. Schlegel, G. E. Scuseria, 
 M. A. Robb, J. R. Cheeseman, G. Scalmani, V. Barone, B. Mennucci, 
 G. A. Petersson, H. Nakatsuji, M. Caricato, X. Li, H. P. Hratchian, 
 A. F. Izmaylov, J. Bloino, G. Zheng, J. L. Sonnenberg, M. Hada, 
 M. Ehara, K. Toyota, R. Fukuda, J. Hasegawa, M. Ishida, T. Nakajima, 
 Y. Honda, O. Kitao, H. Nakai, T. Vreven, J. A. Montgomery, Jr., 
 J. E. Peralta, F. Ogliaro, M. Bearpark, J. J. Heyd, E. Brothers, 
 K. N. Kudin, V. N. Staroverov, T. Keith, R. Kobayashi, J. Normand, 
 K. Raghavachari, A. Rendell, J. C. Burant, S. S. Iyengar, J. Tomasi, 
 M. Cossi, N. Rega, J. M. Millam, M. Klene, J. E. Knox, J. B. Cross, 
 V. Bakken, C. Adamo, J. Jaramillo, R. Gomperts, R. E. Stratmann, 
 O. Yazyev, A. J. Austin, R. Cammi, C. Pomelli, J. W. Ochterski, 
 R. L. Martin, K. Morokuma, V. G. Zakrzewski, G. A. Voth, 
 P. Salvador, J. J. Dannenberg, S. Dapprich, A. D. Daniels, 
 O. Farkas, J. B. Foresman, J. V. Ortiz, J. Cioslowski, 
 and D. J. Fox, Gaussian, Inc., Wallingford CT, 2013.
 
 ******************************************
 Gaussian 09:  ES64L-G09RevD.01 24-Apr-2013
                14-Jan-2022 
 ******************************************
 %nprocshared=16
 Will use up to   16 processors via shared memory.
 %mem=50GB
 %chk=reag_NHC24_et_new3.chk
 ------------------------------------------------------------
 #p opt freq n12sx/6-311+g(d,p) scrf=(iefpcm,solvent=ethanol)
 ------------------------------------------------------------
 1/14=-1,18=20,19=15,26=3,38=1/1,3;
 2/9=110,12=2,17=6,18=5,40=1/2;
 3/5=4,6=6,7=111,11=2,16=1,25=1,30=1,70=2201,71=1,72=4,74=-69/1,2,3;
 4//1;
 5/5=2,38=5,53=4/2;
 6/7=2,8=2,9=2,10=2,28=1/1;
 7//1,2,3,16;
 1/14=-1,18=20,19=15,26=3/3(2);
 2/9=110/2;
 99//99;
 2/9=110/2;
 3/5=4,6=6,7=111,11=2,16=1,25=1,30=1,70=2205,71=1,72=4,74=-69/1,2,3;
 4/5=5,16=3,69=1/1;
 5/5=2,38=5,53=4/2;
 7//1,2,3,16;
 1/14=-1,18=20,19=15,26=3/3(-5);
 2/9=110/2;
 6/7=2,8=2,9=2,10=2,19=2,28=1/1;
 99/9=1/99;
 Leave Link    1 at Fri Jan 14 19:11:34 2022, MaxMem=  6710886400 cpu:         0.7
 (Enter /usr/local/gqt/g09/l101.exe)
 -----
 TITLE
 -----
 Symbolic Z-matrix:
 Charge =  0 Multiplicity = 1
 1                     1.68039  -0.03378  -0.77578 
 8                     2.63569   0.25042  -0.76754 
 6                     2.78828   1.40865  -1.55154 
 1                     2.53063   1.20441  -2.59666 
 1                     2.11062   2.19836  -1.20785 
 6                     7.09254   0.27667   1.24879 
 6                     5.41526  -1.64551  -0.09112 
 6                     5.8288   -0.25848   1.90108 
 1                     7.20282   1.35121   1.36894 
 1                     7.97217  -0.1726    1.71569 
 6                     5.57643  -1.66968   1.40641 
 1                     5.38955  -2.64328  -0.51775 
 1                     4.50926  -1.11204  -0.376 
 1                     5.93397  -0.22926   2.98328 
 1                     4.97782   0.3729    1.64408 
 1                     4.6678   -2.08637   1.83767 
 1                     6.40156  -2.32441   1.69089 
 8                     6.51462  -0.98911  -0.7657 
 8                     8.04812   0.55649  -0.91052 
 6                     7.2424   -0.02085  -0.21902 
 6                     4.21415   1.89979  -1.47023 
 1                     4.34603   2.79763  -2.07214 
 1                     4.48023   2.13835  -0.44118 
 1                     4.90528   1.14159  -1.83474 
 6                    -2.41228  -0.52907  -0.1057 
 6                    -2.10763  -1.72987  -0.97202 
 6                    -0.75034  -1.72766  -1.27985 
 6                    -0.10257  -0.54737  -0.72294 
 7                    -1.04159   0.11506  -0.08524 
 6                    -2.93869  -2.74154  -1.40882 
 6                    -2.38026  -3.75634  -2.17815 
 6                    -1.02257  -3.76415  -2.49069 
 6                    -0.19383  -2.74795  -2.04139 
 6                    -0.72075   1.45222   0.46754 
 6                    -1.32479   1.7859    1.82626 
 6                    -0.78669   3.12829   2.31633 
 6                    -1.03036   4.24654   1.31279 
 6                    -0.44857   3.89165  -0.04875 
 6                    -0.9917    2.56061  -0.55075 
 6                    -2.7953   -1.10352   1.26143 
 6                    -4.11856  -1.4347    1.54321 
 6                    -4.45386  -2.07763   2.72601 
 6                    -3.47135  -2.41263   3.64405 
 6                    -2.14768  -2.11092   3.36029 
 6                    -1.81367  -1.46989   2.17808 
 6                    -3.43163   0.40961  -0.74523 
 6                    -3.4453    0.54306  -2.13271 
 6                    -4.29672   1.44018  -2.75532 
 6                    -5.16      2.22119  -2.00043 
 6                    -5.16137   2.09292  -0.62064 
 6                    -4.30429   1.1961    0.00061 
 1                    -3.99156  -2.75404  -1.16919 
 1                    -3.0116   -4.5546   -2.53962 
 1                    -0.61849  -4.56782  -3.08763 
 1                     0.85972  -2.74059  -2.27861 
 1                     0.35908   1.39919   0.59978 
 1                    -2.41015   1.83931   1.76102 
 1                    -1.0844    1.01097   2.54897 
 1                    -1.24516   3.36978   3.27479 
 1                     0.28673   3.03697   2.49975 
 1                    -2.10545   4.41483   1.21273 
 1                    -0.60037   5.17916   1.67793 
 1                    -0.66909   4.67375  -0.77483 
 1                     0.64053   3.83503   0.02798 
 1                    -2.06123   2.65223  -0.73086 
 1                    -0.52593   2.2888   -1.49759 
 1                    -4.89925  -1.19914   0.83742 
 1                    -5.48773  -2.31878   2.92412 
 1                    -3.73239  -2.91043   4.5659 
 1                    -1.36841  -2.37796   4.05864 
 1                    -0.77634  -1.26187   1.96736 
 1                    -2.7779   -0.05412  -2.73516 
 1                    -4.28587   1.52741  -3.83159 
 1                    -5.82692   2.91961  -2.48345 
 1                    -5.83002   2.69187  -0.02039 
 1                    -4.3249    1.11625   1.0752 
 
 Add virtual bond connecting atoms C28        and H1         Dist= 3.51D+00.
 Add virtual bond connecting atoms H13        and O2         Dist= 4.44D+00.
 NAtoms=     76 NQM=       76 NQMF=       0 NMMI=      0 NMMIF=      0
                NMic=       0 NMicF=      0.
                    Isotopes and Nuclear Properties:
 (Nuclear quadrupole moments (NQMom) in fm**2, nuclear magnetic moments (NMagM)
  in nuclear magnetons)

  Atom         1           2           3           4           5           6           7           8           9          10
 IAtWgt=           1          16          12           1           1          12          12          12           1           1
 AtmWgt=   1.0078250  15.9949146  12.0000000   1.0078250   1.0078250  12.0000000  12.0000000  12.0000000   1.0078250   1.0078250
 NucSpn=           1           0           0           1           1           0           0           0           1           1
 AtZEff=   0.0000000   0.0000000   0.0000000   0.0000000   0.0000000   0.0000000   0.0000000   0.0000000   0.0000000   0.0000000
 NQMom=    0.0000000   0.0000000   0.0000000   0.0000000   0.0000000   0.0000000   0.0000000   0.0000000   0.0000000   0.0000000
 NMagM=    2.7928460   0.0000000   0.0000000   2.7928460   2.7928460   0.0000000   0.0000000   0.0000000   2.7928460   2.7928460
 AtZNuc=   1.0000000   8.0000000   6.0000000   1.0000000   1.0000000   6.0000000   6.0000000   6.0000000   1.0000000   1.0000000

  Atom        11          12          13          14          15          16          17          18          19          20
 IAtWgt=          12           1           1           1           1           1           1          16          16          12
 AtmWgt=  12.0000000   1.0078250   1.0078250   1.0078250   1.0078250   1.0078250   1.0078250  15.9949146  15.9949146  12.0000000
 NucSpn=           0           1           1           1           1           1           1           0           0           0
 AtZEff=   0.0000000   0.0000000   0.0000000   0.0000000   0.0000000   0.0000000   0.0000000   0.0000000   0.0000000   0.0000000
 NQMom=    0.0000000   0.0000000   0.0000000   0.0000000   0.0000000   0.0000000   0.0000000   0.0000000   0.0000000   0.0000000
 NMagM=    0.0000000   2.7928460   2.7928460   2.7928460   2.7928460   2.7928460   2.7928460   0.0000000   0.0000000   0.0000000
 AtZNuc=   6.0000000   1.0000000   1.0000000   1.0000000   1.0000000   1.0000000   1.0000000   8.0000000   8.0000000   6.0000000

  Atom        21          22          23          24          25          26          27          28          29          30
 IAtWgt=          12           1           1           1          12          12          12          12          14          12
 AtmWgt=  12.0000000   1.0078250   1.0078250   1.0078250  12.0000000  12.0000000  12.0000000  12.0000000  14.0030740  12.0000000
 NucSpn=           0           1           1           1           0           0           0           0           2           0
 AtZEff=   0.0000000   0.0000000   0.0000000   0.0000000   0.0000000   0.0000000   0.0000000   0.0000000   0.0000000   0.0000000
 NQMom=    0.0000000   0.0000000   0.0000000   0.0000000   0.0000000   0.0000000   0.0000000   0.0000000   2.0440000   0.0000000
 NMagM=    0.0000000   2.7928460   2.7928460   2.7928460   0.0000000   0.0000000   0.0000000   0.0000000   0.4037610   0.0000000
 AtZNuc=   6.0000000   1.0000000   1.0000000   1.0000000   6.0000000   6.0000000   6.0000000   6.0000000   7.0000000   6.0000000

  Atom        31          32          33          34          35          36          37          38          39          40
 IAtWgt=          12          12          12          12          12          12          12          12          12          12
 AtmWgt=  12.0000000  12.0000000  12.0000000  12.0000000  12.0000000  12.0000000  12.0000000  12.0000000  12.0000000  12.0000000
 NucSpn=           0           0           0           0           0           0           0           0           0           0
 AtZEff=   0.0000000   0.0000000   0.0000000   0.0000000   0.0000000   0.0000000   0.0000000   0.0000000   0.0000000   0.0000000
 NQMom=    0.0000000   0.0000000   0.0000000   0.0000000   0.0000000   0.0000000   0.0000000   0.0000000   0.0000000   0.0000000
 NMagM=    0.0000000   0.0000000   0.0000000   0.0000000   0.0000000   0.0000000   0.0000000   0.0000000   0.0000000   0.0000000
 AtZNuc=   6.0000000   6.0000000   6.0000000   6.0000000   6.0000000   6.0000000   6.0000000   6.0000000   6.0000000   6.0000000

  Atom        41          42          43          44          45          46          47          48          49          50
 IAtWgt=          12          12          12          12          12          12          12          12          12          12
 AtmWgt=  12.0000000  12.0000000  12.0000000  12.0000000  12.0000000  12.0000000  12.0000000  12.0000000  12.0000000  12.0000000
 NucSpn=           0           0           0           0           0           0           0           0           0           0
 AtZEff=   0.0000000   0.0000000   0.0000000   0.0000000   0.0000000   0.0000000   0.0000000   0.0000000   0.0000000   0.0000000
 NQMom=    0.0000000   0.0000000   0.0000000   0.0000000   0.0000000   0.0000000   0.0000000   0.0000000   0.0000000   0.0000000
 NMagM=    0.0000000   0.0000000   0.0000000   0.0000000   0.0000000   0.0000000   0.0000000   0.0000000   0.0000000   0.0000000
 AtZNuc=   6.0000000   6.0000000   6.0000000   6.0000000   6.0000000   6.0000000   6.0000000   6.0000000   6.0000000   6.0000000

  Atom        51          52          53          54          55          56          57          58          59          60
 IAtWgt=          12           1           1           1           1           1           1           1           1           1
 AtmWgt=  12.0000000   1.0078250   1.0078250   1.0078250   1.0078250   1.0078250   1.0078250   1.0078250   1.0078250   1.0078250
 NucSpn=           0           1           1           1           1           1           1           1           1           1
 AtZEff=   0.0000000   0.0000000   0.0000000   0.0000000   0.0000000   0.0000000   0.0000000   0.0000000   0.0000000   0.0000000
 NQMom=    0.0000000   0.0000000   0.0000000   0.0000000   0.0000000   0.0000000   0.0000000   0.0000000   0.0000000   0.0000000
 NMagM=    0.0000000   2.7928460   2.7928460   2.7928460   2.7928460   2.7928460   2.7928460   2.7928460   2.7928460   2.7928460
 AtZNuc=   6.0000000   1.0000000   1.0000000   1.0000000   1.0000000   1.0000000   1.0000000   1.0000000   1.0000000   1.0000000

  Atom        61          62          63          64          65          66          67          68          69          70
 IAtWgt=           1           1           1           1           1           1           1           1           1           1
 AtmWgt=   1.0078250   1.0078250   1.0078250   1.0078250   1.0078250   1.0078250   1.0078250   1.0078250   1.0078250   1.0078250
 NucSpn=           1           1           1           1           1           1           1           1           1           1
 AtZEff=   0.0000000   0.0000000   0.0000000   0.0000000   0.0000000   0.0000000   0.0000000   0.0000000   0.0000000   0.0000000
 NQMom=    0.0000000   0.0000000   0.0000000   0.0000000   0.0000000   0.0000000   0.0000000   0.0000000   0.0000000   0.0000000
 NMagM=    2.7928460   2.7928460   2.7928460   2.7928460   2.7928460   2.7928460   2.7928460   2.7928460   2.7928460   2.7928460
 AtZNuc=   1.0000000   1.0000000   1.0000000   1.0000000   1.0000000   1.0000000   1.0000000   1.0000000   1.0000000   1.0000000

  Atom        71          72          73          74          75          76
 IAtWgt=           1           1           1           1           1           1
 AtmWgt=   1.0078250   1.0078250   1.0078250   1.0078250   1.0078250   1.0078250
 NucSpn=           1           1           1           1           1           1
 AtZEff=   0.0000000   0.0000000   0.0000000   0.0000000   0.0000000   0.0000000
 NQMom=    0.0000000   0.0000000   0.0000000   0.0000000   0.0000000   0.0000000
 NMagM=    2.7928460   2.7928460   2.7928460   2.7928460   2.7928460   2.7928460
 AtZNuc=   1.0000000   1.0000000   1.0000000   1.0000000   1.0000000   1.0000000
 Leave Link  101 at Fri Jan 14 19:11:35 2022, MaxMem=  6710886400 cpu:         7.2
 (Enter /usr/local/gqt/g09/l103.exe)

 GradGradGradGradGradGradGradGradGradGradGradGradGradGradGradGradGradGrad
 Berny optimization.
 Initialization pass.
                           ----------------------------
                           !    Initial Parameters    !
                           ! (Angstroms and Degrees)  !
 --------------------------                            --------------------------
 ! Name  Definition              Value          Derivative Info.                !
 --------------------------------------------------------------------------------
 ! R1    R(1,2)                  0.9967         estimate D2E/DX2                !
 ! R2    R(1,28)                 1.8562         estimate D2E/DX2                !
 ! R3    R(2,3)                  1.4069         estimate D2E/DX2                !
 ! R4    R(2,13)                 2.3494         estimate D2E/DX2                !
 ! R5    R(3,4)                  1.0956         estimate D2E/DX2                !
 ! R6    R(3,5)                  1.0959         estimate D2E/DX2                !
 ! R7    R(3,21)                 1.5103         estimate D2E/DX2                !
 ! R8    R(6,8)                  1.5195         estimate D2E/DX2                !
 ! R9    R(6,9)                  1.0868         estimate D2E/DX2                !
 ! R10   R(6,10)                 1.0925         estimate D2E/DX2                !
 ! R11   R(6,20)                 1.5051         estimate D2E/DX2                !
 ! R12   R(7,11)                 1.5064         estimate D2E/DX2                !
 ! R13   R(7,12)                 1.0855         estimate D2E/DX2                !
 ! R14   R(7,13)                 1.0893         estimate D2E/DX2                !
 ! R15   R(7,18)                 1.4472         estimate D2E/DX2                !
 ! R16   R(8,11)                 1.5165         estimate D2E/DX2                !
 ! R17   R(8,14)                 1.0877         estimate D2E/DX2                !
 ! R18   R(8,15)                 1.0903         estimate D2E/DX2                !
 ! R19   R(11,16)                1.0887         estimate D2E/DX2                !
 ! R20   R(11,17)                1.0911         estimate D2E/DX2                !
 ! R21   R(18,20)                1.3289         estimate D2E/DX2                !
 ! R22   R(19,20)                1.2086         estimate D2E/DX2                !
 ! R23   R(21,22)                1.0889         estimate D2E/DX2                !
 ! R24   R(21,23)                1.0893         estimate D2E/DX2                !
 ! R25   R(21,24)                1.0888         estimate D2E/DX2                !
 ! R26   R(25,26)                1.5117         estimate D2E/DX2                !
 ! R27   R(25,29)                1.5146         estimate D2E/DX2                !
 ! R28   R(25,40)                1.5316         estimate D2E/DX2                !
 ! R29   R(25,46)                1.5262         estimate D2E/DX2                !
 ! R30   R(26,27)                1.3918         estimate D2E/DX2                !
 ! R31   R(26,30)                1.3802         estimate D2E/DX2                !
 ! R32   R(27,28)                1.457          estimate D2E/DX2                !
 ! R33   R(27,33)                1.3895         estimate D2E/DX2                !
 ! R34   R(28,29)                1.3142         estimate D2E/DX2                !
 ! R35   R(29,34)                1.4821         estimate D2E/DX2                !
 ! R36   R(30,31)                1.3905         estimate D2E/DX2                !
 ! R37   R(30,52)                1.0799         estimate D2E/DX2                !
 ! R38   R(31,32)                1.3932         estimate D2E/DX2                !
 ! R39   R(31,53)                1.08           estimate D2E/DX2                !
 ! R40   R(32,33)                1.3861         estimate D2E/DX2                !
 ! R41   R(32,54)                1.0796         estimate D2E/DX2                !
 ! R42   R(33,55)                1.08           estimate D2E/DX2                !
 ! R43   R(34,35)                1.5239         estimate D2E/DX2                !
 ! R44   R(34,39)                1.5293         estimate D2E/DX2                !
 ! R45   R(34,56)                1.0892         estimate D2E/DX2                !
 ! R46   R(35,36)                1.527          estimate D2E/DX2                !
 ! R47   R(35,57)                1.0886         estimate D2E/DX2                !
 ! R48   R(35,58)                1.0866         estimate D2E/DX2                !
 ! R49   R(36,37)                1.5222         estimate D2E/DX2                !
 ! R50   R(36,59)                1.0896         estimate D2E/DX2                !
 ! R51   R(36,60)                1.0928         estimate D2E/DX2                !
 ! R52   R(37,38)                1.5226         estimate D2E/DX2                !
 ! R53   R(37,61)                1.0928         estimate D2E/DX2                !
 ! R54   R(37,62)                1.09           estimate D2E/DX2                !
 ! R55   R(38,39)                1.5227         estimate D2E/DX2                !
 ! R56   R(38,63)                1.0897         estimate D2E/DX2                !
 ! R57   R(38,64)                1.0933         estimate D2E/DX2                !
 ! R58   R(39,65)                1.0885         estimate D2E/DX2                !
 ! R59   R(39,66)                1.0896         estimate D2E/DX2                !
 ! R60   R(40,41)                1.3929         estimate D2E/DX2                !
 ! R61   R(40,45)                1.3922         estimate D2E/DX2                !
 ! R62   R(41,42)                1.3874         estimate D2E/DX2                !
 ! R63   R(41,67)                1.0785         estimate D2E/DX2                !
 ! R64   R(42,43)                1.3858         estimate D2E/DX2                !
 ! R65   R(42,68)                1.08           estimate D2E/DX2                !
 ! R66   R(43,44)                1.387          estimate D2E/DX2                !
 ! R67   R(43,69)                1.0797         estimate D2E/DX2                !
 ! R68   R(44,45)                1.3857         estimate D2E/DX2                !
 ! R69   R(44,70)                1.0799         estimate D2E/DX2                !
 ! R70   R(45,71)                1.0788         estimate D2E/DX2                !
 ! R71   R(46,47)                1.394          estimate D2E/DX2                !
 ! R72   R(46,51)                1.3915         estimate D2E/DX2                !
 ! R73   R(47,48)                1.3847         estimate D2E/DX2                !
 ! R74   R(47,72)                1.0793         estimate D2E/DX2                !
 ! R75   R(48,49)                1.3875         estimate D2E/DX2                !
 ! R76   R(48,73)                1.0799         estimate D2E/DX2                !
 ! R77   R(49,50)                1.3857         estimate D2E/DX2                !
 ! R78   R(49,74)                1.0798         estimate D2E/DX2                !
 ! R79   R(50,51)                1.3874         estimate D2E/DX2                !
 ! R80   R(50,75)                1.0799         estimate D2E/DX2                !
 ! R81   R(51,76)                1.0777         estimate D2E/DX2                !
 ! A1    A(1,2,3)              109.516          estimate D2E/DX2                !
 ! A2    A(1,2,13)             126.8948         estimate D2E/DX2                !
 ! A3    A(3,2,13)             118.9326         estimate D2E/DX2                !
 ! A4    A(2,3,4)              110.6466         estimate D2E/DX2                !
 ! A5    A(2,3,5)              110.5733         estimate D2E/DX2                !
 ! A6    A(2,3,21)             109.8832         estimate D2E/DX2                !
 ! A7    A(4,3,5)              106.743          estimate D2E/DX2                !
 ! A8    A(4,3,21)             109.5118         estimate D2E/DX2                !
 ! A9    A(5,3,21)             109.4248         estimate D2E/DX2                !
 ! A10   A(8,6,9)              112.6519         estimate D2E/DX2                !
 ! A11   A(8,6,10)             109.9581         estimate D2E/DX2                !
 ! A12   A(8,6,20)             115.583          estimate D2E/DX2                !
 ! A13   A(9,6,10)             106.1193         estimate D2E/DX2                !
 ! A14   A(9,6,20)             107.0456         estimate D2E/DX2                !
 ! A15   A(10,6,20)            104.792          estimate D2E/DX2                !
 ! A16   A(11,7,12)            112.2424         estimate D2E/DX2                !
 ! A17   A(11,7,13)            110.9058         estimate D2E/DX2                !
 ! A18   A(11,7,18)            112.9159         estimate D2E/DX2                !
 ! A19   A(12,7,13)            109.1282         estimate D2E/DX2                !
 ! A20   A(12,7,18)            104.5783         estimate D2E/DX2                !
 ! A21   A(13,7,18)            106.7247         estimate D2E/DX2                !
 ! A22   A(6,8,11)             109.0324         estimate D2E/DX2                !
 ! A23   A(6,8,14)             109.7082         estimate D2E/DX2                !
 ! A24   A(6,8,15)             110.1191         estimate D2E/DX2                !
 ! A25   A(11,8,14)            111.4462         estimate D2E/DX2                !
 ! A26   A(11,8,15)            109.3948         estimate D2E/DX2                !
 ! A27   A(14,8,15)            107.1235         estimate D2E/DX2                !
 ! A28   A(7,11,8)             109.096          estimate D2E/DX2                !
 ! A29   A(7,11,16)            108.0985         estimate D2E/DX2                !
 ! A30   A(7,11,17)            110.4716         estimate D2E/DX2                !
 ! A31   A(8,11,16)            111.4596         estimate D2E/DX2                !
 ! A32   A(8,11,17)            110.3344         estimate D2E/DX2                !
 ! A33   A(16,11,17)           107.3502         estimate D2E/DX2                !
 ! A34   A(7,18,20)            123.6914         estimate D2E/DX2                !
 ! A35   A(6,20,18)            119.3843         estimate D2E/DX2                !
 ! A36   A(6,20,19)            121.9996         estimate D2E/DX2                !
 ! A37   A(18,20,19)           118.5405         estimate D2E/DX2                !
 ! A38   A(3,21,22)            110.6531         estimate D2E/DX2                !
 ! A39   A(3,21,23)            110.6519         estimate D2E/DX2                !
 ! A40   A(3,21,24)            110.7823         estimate D2E/DX2                !
 ! A41   A(22,21,23)           108.1803         estimate D2E/DX2                !
 ! A42   A(22,21,24)           108.1941         estimate D2E/DX2                !
 ! A43   A(23,21,24)           108.2836         estimate D2E/DX2                !
 ! A44   A(26,25,29)            99.391          estimate D2E/DX2                !
 ! A45   A(26,25,40)           105.3082         estimate D2E/DX2                !
 ! A46   A(26,25,46)           112.5209         estimate D2E/DX2                !
 ! A47   A(29,25,40)           111.948          estimate D2E/DX2                !
 ! A48   A(29,25,46)           110.3978         estimate D2E/DX2                !
 ! A49   A(40,25,46)           115.9574         estimate D2E/DX2                !
 ! A50   A(25,26,27)           108.7855         estimate D2E/DX2                !
 ! A51   A(25,26,30)           129.9603         estimate D2E/DX2                !
 ! A52   A(27,26,30)           121.2244         estimate D2E/DX2                !
 ! A53   A(26,27,28)           110.5075         estimate D2E/DX2                !
 ! A54   A(26,27,33)           120.707          estimate D2E/DX2                !
 ! A55   A(28,27,33)           128.7756         estimate D2E/DX2                !
 ! A56   A(1,28,27)            129.8148         estimate D2E/DX2                !
 ! A57   A(1,28,29)            124.1008         estimate D2E/DX2                !
 ! A58   A(27,28,29)           106.0289         estimate D2E/DX2                !
 ! A59   A(25,29,28)           115.1941         estimate D2E/DX2                !
 ! A60   A(25,29,34)           125.7774         estimate D2E/DX2                !
 ! A61   A(28,29,34)           118.7549         estimate D2E/DX2                !
 ! A62   A(26,30,31)           117.9188         estimate D2E/DX2                !
 ! A63   A(26,30,52)           121.6915         estimate D2E/DX2                !
 ! A64   A(31,30,52)           120.3895         estimate D2E/DX2                !
 ! A65   A(30,31,32)           121.3027         estimate D2E/DX2                !
 ! A66   A(30,31,53)           119.3288         estimate D2E/DX2                !
 ! A67   A(32,31,53)           119.3685         estimate D2E/DX2                !
 ! A68   A(31,32,33)           120.3854         estimate D2E/DX2                !
 ! A69   A(31,32,54)           119.5349         estimate D2E/DX2                !
 ! A70   A(33,32,54)           120.0797         estimate D2E/DX2                !
 ! A71   A(27,33,32)           118.4587         estimate D2E/DX2                !
 ! A72   A(27,33,55)           120.4047         estimate D2E/DX2                !
 ! A73   A(32,33,55)           121.1358         estimate D2E/DX2                !
 ! A74   A(29,34,35)           116.3786         estimate D2E/DX2                !
 ! A75   A(29,34,39)           111.5429         estimate D2E/DX2                !
 ! A76   A(29,34,56)           102.473          estimate D2E/DX2                !
 ! A77   A(35,34,39)           111.3916         estimate D2E/DX2                !
 ! A78   A(35,34,56)           107.18           estimate D2E/DX2                !
 ! A79   A(39,34,56)           106.9637         estimate D2E/DX2                !
 ! A80   A(34,35,36)           109.8137         estimate D2E/DX2                !
 ! A81   A(34,35,57)           110.6396         estimate D2E/DX2                !
 ! A82   A(34,35,58)           110.4367         estimate D2E/DX2                !
 ! A83   A(36,35,57)           109.1137         estimate D2E/DX2                !
 ! A84   A(36,35,58)           109.6059         estimate D2E/DX2                !
 ! A85   A(57,35,58)           107.1824         estimate D2E/DX2                !
 ! A86   A(35,36,37)           112.1994         estimate D2E/DX2                !
 ! A87   A(35,36,59)           109.201          estimate D2E/DX2                !
 ! A88   A(35,36,60)           109.0593         estimate D2E/DX2                !
 ! A89   A(37,36,59)           110.4728         estimate D2E/DX2                !
 ! A90   A(37,36,60)           109.2261         estimate D2E/DX2                !
 ! A91   A(59,36,60)           106.5107         estimate D2E/DX2                !
 ! A92   A(36,37,38)           110.9252         estimate D2E/DX2                !
 ! A93   A(36,37,61)           109.3294         estimate D2E/DX2                !
 ! A94   A(36,37,62)           110.1564         estimate D2E/DX2                !
 ! A95   A(38,37,61)           109.2653         estimate D2E/DX2                !
 ! A96   A(38,37,62)           110.3814         estimate D2E/DX2                !
 ! A97   A(61,37,62)           106.6805         estimate D2E/DX2                !
 ! A98   A(37,38,39)           111.2392         estimate D2E/DX2                !
 ! A99   A(37,38,63)           110.5616         estimate D2E/DX2                !
 ! A100  A(37,38,64)           109.2666         estimate D2E/DX2                !
 ! A101  A(39,38,63)           109.6044         estimate D2E/DX2                !
 ! A102  A(39,38,64)           109.4625         estimate D2E/DX2                !
 ! A103  A(63,38,64)           106.5902         estimate D2E/DX2                !
 ! A104  A(34,39,38)           110.5376         estimate D2E/DX2                !
 ! A105  A(34,39,65)           110.1986         estimate D2E/DX2                !
 ! A106  A(34,39,66)           108.7879         estimate D2E/DX2                !
 ! A107  A(38,39,65)           109.3571         estimate D2E/DX2                !
 ! A108  A(38,39,66)           110.6125         estimate D2E/DX2                !
 ! A109  A(65,39,66)           107.2911         estimate D2E/DX2                !
 ! A110  A(25,40,41)           120.4869         estimate D2E/DX2                !
 ! A111  A(25,40,45)           120.6712         estimate D2E/DX2                !
 ! A112  A(41,40,45)           118.3012         estimate D2E/DX2                !
 ! A113  A(40,41,42)           120.8142         estimate D2E/DX2                !
 ! A114  A(40,41,67)           120.224          estimate D2E/DX2                !
 ! A115  A(42,41,67)           118.9605         estimate D2E/DX2                !
 ! A116  A(41,42,43)           120.3625         estimate D2E/DX2                !
 ! A117  A(41,42,68)           119.4222         estimate D2E/DX2                !
 ! A118  A(43,42,68)           120.2148         estimate D2E/DX2                !
 ! A119  A(42,43,44)           119.2433         estimate D2E/DX2                !
 ! A120  A(42,43,69)           120.3754         estimate D2E/DX2                !
 ! A121  A(44,43,69)           120.3792         estimate D2E/DX2                !
 ! A122  A(43,44,45)           120.3473         estimate D2E/DX2                !
 ! A123  A(43,44,70)           120.1698         estimate D2E/DX2                !
 ! A124  A(45,44,70)           119.4824         estimate D2E/DX2                !
 ! A125  A(40,45,44)           120.8994         estimate D2E/DX2                !
 ! A126  A(40,45,71)           119.9125         estimate D2E/DX2                !
 ! A127  A(44,45,71)           119.1863         estimate D2E/DX2                !
 ! A128  A(25,46,47)           118.8505         estimate D2E/DX2                !
 ! A129  A(25,46,51)           122.8126         estimate D2E/DX2                !
 ! A130  A(47,46,51)           118.2445         estimate D2E/DX2                !
 ! A131  A(46,47,48)           121.0377         estimate D2E/DX2                !
 ! A132  A(46,47,72)           119.7718         estimate D2E/DX2                !
 ! A133  A(48,47,72)           119.1886         estimate D2E/DX2                !
 ! A134  A(47,48,49)           120.1743         estimate D2E/DX2                !
 ! A135  A(47,48,73)           119.624          estimate D2E/DX2                !
 ! A136  A(49,48,73)           120.2016         estimate D2E/DX2                !
 ! A137  A(48,49,50)           119.3566         estimate D2E/DX2                !
 ! A138  A(48,49,74)           120.3321         estimate D2E/DX2                !
 ! A139  A(50,49,74)           120.3109         estimate D2E/DX2                !
 ! A140  A(49,50,51)           120.3374         estimate D2E/DX2                !
 ! A141  A(49,50,75)           120.1805         estimate D2E/DX2                !
 ! A142  A(51,50,75)           119.482          estimate D2E/DX2                !
 ! A143  A(46,51,50)           120.848          estimate D2E/DX2                !
 ! A144  A(46,51,76)           120.2996         estimate D2E/DX2                !
 ! A145  A(50,51,76)           118.8523         estimate D2E/DX2                !
 ! A146  L(2,1,28,36,-1)       178.276          estimate D2E/DX2                !
 ! A147  L(2,13,7,9,-1)        172.8464         estimate D2E/DX2                !
 ! A148  L(2,1,28,36,-2)       181.3685         estimate D2E/DX2                !
 ! A149  L(2,13,7,9,-2)        176.8392         estimate D2E/DX2                !
 ! D1    D(1,2,7,11)           -84.292          estimate D2E/DX2                !
 ! D2    D(1,2,7,12)            40.5645         estimate D2E/DX2                !
 ! D3    D(1,2,7,18)           155.0779         estimate D2E/DX2                !
 ! D4    D(3,2,7,11)           119.7006         estimate D2E/DX2                !
 ! D5    D(3,2,7,12)          -115.4429         estimate D2E/DX2                !
 ! D6    D(3,2,7,18)            -0.9294         estimate D2E/DX2                !
 ! D7    D(3,2,28,27)          113.0249         estimate D2E/DX2                !
 ! D8    D(3,2,28,29)          -70.8678         estimate D2E/DX2                !
 ! D9    D(13,2,28,27)         -43.7098         estimate D2E/DX2                !
 ! D10   D(13,2,28,29)         132.3975         estimate D2E/DX2                !
 ! D11   D(1,2,3,4)            -62.7226         estimate D2E/DX2                !
 ! D12   D(1,2,3,5)             55.3282         estimate D2E/DX2                !
 ! D13   D(1,2,3,21)           176.2247         estimate D2E/DX2                !
 ! D14   D(13,2,3,4)            94.7499         estimate D2E/DX2                !
 ! D15   D(13,2,3,5)          -147.1993         estimate D2E/DX2                !
 ! D16   D(13,2,3,21)          -26.3028         estimate D2E/DX2                !
 ! D17   D(2,3,21,22)         -179.9244         estimate D2E/DX2                !
 ! D18   D(2,3,21,23)          -60.0298         estimate D2E/DX2                !
 ! D19   D(2,3,21,24)           60.0786         estimate D2E/DX2                !
 ! D20   D(4,3,21,22)           58.3431         estimate D2E/DX2                !
 ! D21   D(4,3,21,23)          178.2377         estimate D2E/DX2                !
 ! D22   D(4,3,21,24)          -61.6539         estimate D2E/DX2                !
 ! D23   D(5,3,21,22)          -58.3388         estimate D2E/DX2                !
 ! D24   D(5,3,21,23)           61.5558         estimate D2E/DX2                !
 ! D25   D(5,3,21,24)         -178.3358         estimate D2E/DX2                !
 ! D26   D(9,6,8,11)           166.235          estimate D2E/DX2                !
 ! D27   D(9,6,8,14)           -71.4614         estimate D2E/DX2                !
 ! D28   D(9,6,8,15)            46.2036         estimate D2E/DX2                !
 ! D29   D(10,6,8,11)          -75.6258         estimate D2E/DX2                !
 ! D30   D(10,6,8,14)           46.6778         estimate D2E/DX2                !
 ! D31   D(10,6,8,15)          164.3428         estimate D2E/DX2                !
 ! D32   D(20,6,8,11)           42.7338         estimate D2E/DX2                !
 ! D33   D(20,6,8,14)          165.0374         estimate D2E/DX2                !
 ! D34   D(20,6,8,15)          -77.2976         estimate D2E/DX2                !
 ! D35   D(8,6,20,18)          -18.0243         estimate D2E/DX2                !
 ! D36   D(8,6,20,19)          165.1835         estimate D2E/DX2                !
 ! D37   D(9,6,20,18)         -144.4228         estimate D2E/DX2                !
 ! D38   D(9,6,20,19)           38.7849         estimate D2E/DX2                !
 ! D39   D(10,6,20,18)         103.1623         estimate D2E/DX2                !
 ! D40   D(10,6,20,19)         -73.63           estimate D2E/DX2                !
 ! D41   D(12,7,11,8)          170.9127         estimate D2E/DX2                !
 ! D42   D(12,7,11,16)         -67.725          estimate D2E/DX2                !
 ! D43   D(12,7,11,17)          49.4617         estimate D2E/DX2                !
 ! D44   D(13,7,11,8)          -66.7307         estimate D2E/DX2                !
 ! D45   D(13,7,11,16)          54.6316         estimate D2E/DX2                !
 ! D46   D(13,7,11,17)         171.8183         estimate D2E/DX2                !
 ! D47   D(18,7,11,8)           53.0003         estimate D2E/DX2                !
 ! D48   D(18,7,11,16)         174.3626         estimate D2E/DX2                !
 ! D49   D(18,7,11,17)         -68.4507         estimate D2E/DX2                !
 ! D50   D(11,7,18,20)         -28.7562         estimate D2E/DX2                !
 ! D51   D(12,7,18,20)        -151.0713         estimate D2E/DX2                !
 ! D52   D(13,7,18,20)          93.3539         estimate D2E/DX2                !
 ! D53   D(6,8,11,7)           -59.744          estimate D2E/DX2                !
 ! D54   D(6,8,11,16)         -179.0399         estimate D2E/DX2                !
 ! D55   D(6,8,11,17)           61.7903         estimate D2E/DX2                !
 ! D56   D(14,8,11,7)          179.0057         estimate D2E/DX2                !
 ! D57   D(14,8,11,16)          59.7098         estimate D2E/DX2                !
 ! D58   D(14,8,11,17)         -59.46           estimate D2E/DX2                !
 ! D59   D(15,8,11,7)           60.7335         estimate D2E/DX2                !
 ! D60   D(15,8,11,16)         -58.5624         estimate D2E/DX2                !
 ! D61   D(15,8,11,17)        -177.7323         estimate D2E/DX2                !
 ! D62   D(7,18,20,6)           10.5621         estimate D2E/DX2                !
 ! D63   D(7,18,20,19)        -172.5344         estimate D2E/DX2                !
 ! D64   D(29,25,26,27)          2.9723         estimate D2E/DX2                !
 ! D65   D(29,25,26,30)       -179.0322         estimate D2E/DX2                !
 ! D66   D(40,25,26,27)       -113.0072         estimate D2E/DX2                !
 ! D67   D(40,25,26,30)         64.9883         estimate D2E/DX2                !
 ! D68   D(46,25,26,27)        119.7809         estimate D2E/DX2                !
 ! D69   D(46,25,26,30)        -62.2236         estimate D2E/DX2                !
 ! D70   D(26,25,29,28)         -2.494          estimate D2E/DX2                !
 ! D71   D(26,25,29,34)        171.3884         estimate D2E/DX2                !
 ! D72   D(40,25,29,28)        108.3089         estimate D2E/DX2                !
 ! D73   D(40,25,29,34)        -77.8087         estimate D2E/DX2                !
 ! D74   D(46,25,29,28)       -120.8986         estimate D2E/DX2                !
 ! D75   D(46,25,29,34)         52.9838         estimate D2E/DX2                !
 ! D76   D(26,25,40,41)        -88.9372         estimate D2E/DX2                !
 ! D77   D(26,25,40,45)         82.4861         estimate D2E/DX2                !
 ! D78   D(29,25,40,41)        164.0434         estimate D2E/DX2                !
 ! D79   D(29,25,40,45)        -24.5333         estimate D2E/DX2                !
 ! D80   D(46,25,40,41)         36.1567         estimate D2E/DX2                !
 ! D81   D(46,25,40,45)       -152.42           estimate D2E/DX2                !
 ! D82   D(26,25,46,47)        -33.1743         estimate D2E/DX2                !
 ! D83   D(26,25,46,51)        150.3859         estimate D2E/DX2                !
 ! D84   D(29,25,46,47)         76.8637         estimate D2E/DX2                !
 ! D85   D(29,25,46,51)        -99.576          estimate D2E/DX2                !
 ! D86   D(40,25,46,47)       -154.4882         estimate D2E/DX2                !
 ! D87   D(40,25,46,51)         29.072          estimate D2E/DX2                !
 ! D88   D(25,26,27,28)         -2.7082         estimate D2E/DX2                !
 ! D89   D(25,26,27,33)        178.3356         estimate D2E/DX2                !
 ! D90   D(30,26,27,28)        179.0884         estimate D2E/DX2                !
 ! D91   D(30,26,27,33)          0.1322         estimate D2E/DX2                !
 ! D92   D(25,26,30,31)       -178.3278         estimate D2E/DX2                !
 ! D93   D(25,26,30,52)          1.828          estimate D2E/DX2                !
 ! D94   D(27,26,30,31)         -0.5471         estimate D2E/DX2                !
 ! D95   D(27,26,30,52)        179.6088         estimate D2E/DX2                !
 ! D96   D(26,27,28,1)         178.4168         estimate D2E/DX2                !
 ! D97   D(26,27,28,29)          1.088          estimate D2E/DX2                !
 ! D98   D(33,27,28,1)          -2.7344         estimate D2E/DX2                !
 ! D99   D(33,27,28,29)        179.9368         estimate D2E/DX2                !
 ! D100  D(26,27,33,32)          0.2306         estimate D2E/DX2                !
 ! D101  D(26,27,33,55)        179.9083         estimate D2E/DX2                !
 ! D102  D(28,27,33,32)       -178.5154         estimate D2E/DX2                !
 ! D103  D(28,27,33,55)          1.1624         estimate D2E/DX2                !
 ! D104  D(1,28,29,25)        -176.49           estimate D2E/DX2                !
 ! D105  D(1,28,29,34)           9.1697         estimate D2E/DX2                !
 ! D106  D(27,28,29,25)          1.0322         estimate D2E/DX2                !
 ! D107  D(27,28,29,34)       -173.3081         estimate D2E/DX2                !
 ! D108  D(25,29,34,35)         45.0722         estimate D2E/DX2                !
 ! D109  D(25,29,34,39)        -84.2362         estimate D2E/DX2                !
 ! D110  D(25,29,34,56)        161.6478         estimate D2E/DX2                !
 ! D111  D(28,29,34,35)       -141.2428         estimate D2E/DX2                !
 ! D112  D(28,29,34,39)         89.4488         estimate D2E/DX2                !
 ! D113  D(28,29,34,56)        -24.6672         estimate D2E/DX2                !
 ! D114  D(26,30,31,32)          0.6139         estimate D2E/DX2                !
 ! D115  D(26,30,31,53)       -179.4436         estimate D2E/DX2                !
 ! D116  D(52,30,31,32)       -179.5399         estimate D2E/DX2                !
 ! D117  D(52,30,31,53)          0.4027         estimate D2E/DX2                !
 ! D118  D(30,31,32,33)         -0.2642         estimate D2E/DX2                !
 ! D119  D(30,31,32,54)        179.8139         estimate D2E/DX2                !
 ! D120  D(53,31,32,33)        179.7933         estimate D2E/DX2                !
 ! D121  D(53,31,32,54)         -0.1286         estimate D2E/DX2                !
 ! D122  D(31,32,33,27)         -0.1644         estimate D2E/DX2                !
 ! D123  D(31,32,33,55)       -179.8397         estimate D2E/DX2                !
 ! D124  D(54,32,33,27)        179.757          estimate D2E/DX2                !
 ! D125  D(54,32,33,55)          0.0817         estimate D2E/DX2                !
 ! D126  D(29,34,35,36)        174.2094         estimate D2E/DX2                !
 ! D127  D(29,34,35,57)        -65.2846         estimate D2E/DX2                !
 ! D128  D(29,34,35,58)         53.2204         estimate D2E/DX2                !
 ! D129  D(39,34,35,36)        -56.4096         estimate D2E/DX2                !
 ! D130  D(39,34,35,57)         64.0964         estimate D2E/DX2                !
 ! D131  D(39,34,35,58)       -177.3986         estimate D2E/DX2                !
 ! D132  D(56,34,35,36)         60.2762         estimate D2E/DX2                !
 ! D133  D(56,34,35,57)       -179.2178         estimate D2E/DX2                !
 ! D134  D(56,34,35,58)        -60.7128         estimate D2E/DX2                !
 ! D135  D(29,34,39,38)       -170.8815         estimate D2E/DX2                !
 ! D136  D(29,34,39,65)         68.1228         estimate D2E/DX2                !
 ! D137  D(29,34,39,66)        -49.2439         estimate D2E/DX2                !
 ! D138  D(35,34,39,38)         57.232          estimate D2E/DX2                !
 ! D139  D(35,34,39,65)        -63.7636         estimate D2E/DX2                !
 ! D140  D(35,34,39,66)        178.8697         estimate D2E/DX2                !
 ! D141  D(56,34,39,38)        -59.5856         estimate D2E/DX2                !
 ! D142  D(56,34,39,65)        179.4188         estimate D2E/DX2                !
 ! D143  D(56,34,39,66)         62.0521         estimate D2E/DX2                !
 ! D144  D(34,35,36,37)         55.6439         estimate D2E/DX2                !
 ! D145  D(34,35,36,59)        178.473          estimate D2E/DX2                !
 ! D146  D(34,35,36,60)        -65.5056         estimate D2E/DX2                !
 ! D147  D(57,35,36,37)        -65.7815         estimate D2E/DX2                !
 ! D148  D(57,35,36,59)         57.0476         estimate D2E/DX2                !
 ! D149  D(57,35,36,60)        173.069          estimate D2E/DX2                !
 ! D150  D(58,35,36,37)        177.1321         estimate D2E/DX2                !
 ! D151  D(58,35,36,59)        -60.0389         estimate D2E/DX2                !
 ! D152  D(58,35,36,60)         55.9825         estimate D2E/DX2                !
 ! D153  D(35,36,37,38)        -55.3104         estimate D2E/DX2                !
 ! D154  D(35,36,37,61)         65.2512         estimate D2E/DX2                !
 ! D155  D(35,36,37,62)       -177.8266         estimate D2E/DX2                !
 ! D156  D(59,36,37,38)       -177.4184         estimate D2E/DX2                !
 ! D157  D(59,36,37,61)        -56.8568         estimate D2E/DX2                !
 ! D158  D(59,36,37,62)         60.0654         estimate D2E/DX2                !
 ! D159  D(60,36,37,38)         65.7432         estimate D2E/DX2                !
 ! D160  D(60,36,37,61)       -173.6952         estimate D2E/DX2                !
 ! D161  D(60,36,37,62)        -56.773          estimate D2E/DX2                !
 ! D162  D(36,37,38,39)         55.1805         estimate D2E/DX2                !
 ! D163  D(36,37,38,63)        177.2034         estimate D2E/DX2                !
 ! D164  D(36,37,38,64)        -65.7857         estimate D2E/DX2                !
 ! D165  D(61,37,38,39)        -65.4191         estimate D2E/DX2                !
 ! D166  D(61,37,38,63)         56.6038         estimate D2E/DX2                !
 ! D167  D(61,37,38,64)        173.6147         estimate D2E/DX2                !
 ! D168  D(62,37,38,39)        177.566          estimate D2E/DX2                !
 ! D169  D(62,37,38,63)        -60.4111         estimate D2E/DX2                !
 ! D170  D(62,37,38,64)         56.5998         estimate D2E/DX2                !
 ! D171  D(37,38,39,34)        -56.1743         estimate D2E/DX2                !
 ! D172  D(37,38,39,65)         65.3201         estimate D2E/DX2                !
 ! D173  D(37,38,39,66)       -176.7287         estimate D2E/DX2                !
 ! D174  D(63,38,39,34)       -178.7507         estimate D2E/DX2                !
 ! D175  D(63,38,39,65)        -57.2563         estimate D2E/DX2                !
 ! D176  D(63,38,39,66)         60.6948         estimate D2E/DX2                !
 ! D177  D(64,38,39,34)         64.6769         estimate D2E/DX2                !
 ! D178  D(64,38,39,65)       -173.8287         estimate D2E/DX2                !
 ! D179  D(64,38,39,66)        -55.8775         estimate D2E/DX2                !
 ! D180  D(25,40,41,42)        173.5226         estimate D2E/DX2                !
 ! D181  D(25,40,41,67)         -6.0599         estimate D2E/DX2                !
 ! D182  D(45,40,41,42)          1.8995         estimate D2E/DX2                !
 ! D183  D(45,40,41,67)       -177.6829         estimate D2E/DX2                !
 ! D184  D(25,40,45,44)       -173.5699         estimate D2E/DX2                !
 ! D185  D(25,40,45,71)          5.9296         estimate D2E/DX2                !
 ! D186  D(41,40,45,44)         -1.9629         estimate D2E/DX2                !
 ! D187  D(41,40,45,71)        177.5366         estimate D2E/DX2                !
 ! D188  D(40,41,42,43)         -0.5906         estimate D2E/DX2                !
 ! D189  D(40,41,42,68)        179.6484         estimate D2E/DX2                !
 ! D190  D(67,41,42,43)        178.997          estimate D2E/DX2                !
 ! D191  D(67,41,42,68)         -0.764          estimate D2E/DX2                !
 ! D192  D(41,42,43,44)         -0.6966         estimate D2E/DX2                !
 ! D193  D(41,42,43,69)        179.8228         estimate D2E/DX2                !
 ! D194  D(68,42,43,44)        179.0625         estimate D2E/DX2                !
 ! D195  D(68,42,43,69)         -0.4181         estimate D2E/DX2                !
 ! D196  D(42,43,44,45)          0.6352         estimate D2E/DX2                !
 ! D197  D(42,43,44,70)       -179.1205         estimate D2E/DX2                !
 ! D198  D(69,43,44,45)       -179.8842         estimate D2E/DX2                !
 ! D199  D(69,43,44,70)          0.3601         estimate D2E/DX2                !
 ! D200  D(43,44,45,40)          0.7162         estimate D2E/DX2                !
 ! D201  D(43,44,45,71)       -178.7868         estimate D2E/DX2                !
 ! D202  D(70,44,45,40)       -179.5264         estimate D2E/DX2                !
 ! D203  D(70,44,45,71)          0.9705         estimate D2E/DX2                !
 ! D204  D(25,46,47,48)       -176.1601         estimate D2E/DX2                !
 ! D205  D(25,46,47,72)          3.3288         estimate D2E/DX2                !
 ! D206  D(51,46,47,48)          0.4435         estimate D2E/DX2                !
 ! D207  D(51,46,47,72)        179.9324         estimate D2E/DX2                !
 ! D208  D(25,46,51,50)        176.2147         estimate D2E/DX2                !
 ! D209  D(25,46,51,76)         -3.8437         estimate D2E/DX2                !
 ! D210  D(47,46,51,50)         -0.2456         estimate D2E/DX2                !
 ! D211  D(47,46,51,76)        179.696          estimate D2E/DX2                !
 ! D212  D(46,47,48,49)         -0.2982         estimate D2E/DX2                !
 ! D213  D(46,47,48,73)        179.7858         estimate D2E/DX2                !
 ! D214  D(72,47,48,49)       -179.7901         estimate D2E/DX2                !
 ! D215  D(72,47,48,73)          0.2939         estimate D2E/DX2                !
 ! D216  D(47,48,49,50)         -0.0541         estimate D2E/DX2                !
 ! D217  D(47,48,49,74)       -179.8314         estimate D2E/DX2                !
 ! D218  D(73,48,49,50)        179.8615         estimate D2E/DX2                !
 ! D219  D(73,48,49,74)          0.0841         estimate D2E/DX2                !
 ! D220  D(48,49,50,51)          0.2499         estimate D2E/DX2                !
 ! D221  D(48,49,50,75)       -179.8034         estimate D2E/DX2                !
 ! D222  D(74,49,50,51)       -179.9727         estimate D2E/DX2                !
 ! D223  D(74,49,50,75)         -0.0259         estimate D2E/DX2                !
 ! D224  D(49,50,51,46)         -0.098          estimate D2E/DX2                !
 ! D225  D(49,50,51,76)        179.9596         estimate D2E/DX2                !
 ! D226  D(75,50,51,46)        179.9549         estimate D2E/DX2                !
 ! D227  D(75,50,51,76)          0.0125         estimate D2E/DX2                !
 --------------------------------------------------------------------------------
 Trust Radius=3.00D-01 FncErr=1.00D-07 GrdErr=1.00D-06
 Number of steps in this run=    456 maximum allowed number of steps=    456.
 GradGradGradGradGradGradGradGradGradGradGradGradGradGradGradGradGradGrad

 Leave Link  103 at Fri Jan 14 19:11:35 2022, MaxMem=  6710886400 cpu:         0.3
 (Enter /usr/local/gqt/g09/l202.exe)
 Stoichiometry    C33H39NO3
 Framework group  C1[X(C33H39NO3)]
 Deg. of freedom   222
 Full point group                 C1      NOp   1
 Largest Abelian subgroup         C1      NOp   1
 Largest concise Abelian subgroup C1      NOp   1
                         Standard orientation:                         
 ---------------------------------------------------------------------
 Center     Atomic      Atomic             Coordinates (Angstroms)
 Number     Number       Type             X           Y           Z
 ---------------------------------------------------------------------
      1          1           0        1.680389   -0.033783   -0.775776
      2          8           0        2.635692    0.250415   -0.767535
      3          6           0        2.788276    1.408647   -1.551544
      4          1           0        2.530631    1.204414   -2.596659
      5          1           0        2.110623    2.198358   -1.207852
      6          6           0        7.092540    0.276671    1.248791
      7          6           0        5.415258   -1.645513   -0.091120
      8          6           0        5.828800   -0.258478    1.901080
      9          1           0        7.202817    1.351212    1.368935
     10          1           0        7.972167   -0.172603    1.715687
     11          6           0        5.576425   -1.669675    1.406405
     12          1           0        5.389552   -2.643279   -0.517750
     13          1           0        4.509259   -1.112044   -0.376001
     14          1           0        5.933974   -0.229263    2.983278
     15          1           0        4.977824    0.372900    1.644076
     16          1           0        4.667797   -2.086370    1.837667
     17          1           0        6.401558   -2.324411    1.690888
     18          8           0        6.514618   -0.989107   -0.765700
     19          8           0        8.048124    0.556491   -0.910523
     20          6           0        7.242396   -0.020851   -0.219021
     21          6           0        4.214147    1.899791   -1.470227
     22          1           0        4.346030    2.797630   -2.072137
     23          1           0        4.480229    2.138352   -0.441178
     24          1           0        4.905279    1.141591   -1.834740
     25          6           0       -2.412280   -0.529073   -0.105695
     26          6           0       -2.107626   -1.729872   -0.972020
     27          6           0       -0.750337   -1.727655   -1.279849
     28          6           0       -0.102570   -0.547369   -0.722944
     29          7           0       -1.041589    0.115057   -0.085235
     30          6           0       -2.938686   -2.741536   -1.408816
     31          6           0       -2.380259   -3.756340   -2.178145
     32          6           0       -1.022566   -3.764149   -2.490685
     33          6           0       -0.193829   -2.747954   -2.041391
     34          6           0       -0.720754    1.452216    0.467542
     35          6           0       -1.324787    1.785904    1.826260
     36          6           0       -0.786686    3.128288    2.316327
     37          6           0       -1.030363    4.246543    1.312789
     38          6           0       -0.448572    3.891650   -0.048749
     39          6           0       -0.991700    2.560605   -0.550749
     40          6           0       -2.795301   -1.103523    1.261428
     41          6           0       -4.118558   -1.434699    1.543206
     42          6           0       -4.453859   -2.077631    2.726011
     43          6           0       -3.471346   -2.412633    3.644051
     44          6           0       -2.147683   -2.110917    3.360285
     45          6           0       -1.813665   -1.469893    2.178079
     46          6           0       -3.431634    0.409607   -0.745225
     47          6           0       -3.445295    0.543060   -2.132706
     48          6           0       -4.296717    1.440181   -2.755317
     49          6           0       -5.160004    2.221192   -2.000426
     50          6           0       -5.161370    2.092916   -0.620636
     51          6           0       -4.304291    1.196104    0.000610
     52          1           0       -3.991558   -2.754044   -1.169189
     53          1           0       -3.011597   -4.554599   -2.539620
     54          1           0       -0.618494   -4.567816   -3.087626
     55          1           0        0.859722   -2.740589   -2.278609
     56          1           0        0.359082    1.399192    0.599780
     57          1           0       -2.410147    1.839305    1.761021
     58          1           0       -1.084401    1.010968    2.548970
     59          1           0       -1.245157    3.369783    3.274788
     60          1           0        0.286734    3.036967    2.499746
     61          1           0       -2.105454    4.414827    1.212729
     62          1           0       -0.600365    5.179161    1.677929
     63          1           0       -0.669089    4.673749   -0.774827
     64          1           0        0.640530    3.835029    0.027983
     65          1           0       -2.061233    2.652228   -0.730864
     66          1           0       -0.525933    2.288805   -1.497585
     67          1           0       -4.899247   -1.199135    0.837421
     68          1           0       -5.487733   -2.318779    2.924122
     69          1           0       -3.732387   -2.910430    4.565900
     70          1           0       -1.368406   -2.377960    4.058640
     71          1           0       -0.776338   -1.261873    1.967361
     72          1           0       -2.777902   -0.054118   -2.735160
     73          1           0       -4.285872    1.527413   -3.831589
     74          1           0       -5.826921    2.919614   -2.483453
     75          1           0       -5.830022    2.691870   -0.020390
     76          1           0       -4.324898    1.116253    1.075198
 ---------------------------------------------------------------------
 Rotational constants (GHZ):      0.1446469      0.0558594      0.0520833
 Leave Link  202 at Fri Jan 14 19:11:35 2022, MaxMem=  6710886400 cpu:         0.0
 (Enter /usr/local/gqt/g09/l301.exe)
 Standard basis: 6-311+G(d,p) (5D, 7F)
 Ernie: Thresh=  0.10000D-02 Tol=  0.10000D-05 Strict=F.
 There are  1085 symmetry adapted cartesian basis functions of A   symmetry.
 There are  1048 symmetry adapted basis functions of A   symmetry.
  1048 basis functions,  1644 primitive gaussians,  1085 cartesian basis functions
   134 alpha electrons      134 beta electrons
       nuclear repulsion energy      4051.4369520835 Hartrees.
 IExCor= 5547 DFT=T Ex+Corr=N12SX ExCW=0 ScaHFX=  0.250000
 ScaDFX=  1.000000  1.000000  1.000000  1.000000 ScalE2=  1.000000  1.000000
 IRadAn=      0 IRanWt=     -1 IRanGd=            0 ICorTp=0 IEmpDi=  4
  HFx wShort=  0.110000 wLong=  0.000000 cFull=  0.000000 cShort=  1.000000 cLong=  0.000000
  DFx wShort=  0.110000 wLong=  0.000000 cFull=  0.000000 cShort=  1.000000 cLong=  0.000000
 NAtoms=   76 NActive=   76 NUniq=   76 SFac= 1.00D+00 NAtFMM=   60 NAOKFM=T Big=T
 Integral buffers will be    131072 words long.
 Raffenetti 2 integral format.
 Two-electron integral symmetry is turned on.
 ------------------------------------------------------------------------------
 Polarizable Continuum Model (PCM)
 =================================
 Model                : PCM (using non-symmetric T matrix).
 Atomic radii         : UFF (Universal Force Field).
 Polarization charges : Total charges.
 Charge compensation  : None.
 Solution method      : On-the-fly selection.
 Cavity type          : Scaled VdW (van der Waals Surface) (Alpha=1.100).
 Cavity algorithm     : GePol (No added spheres)
                        Default sphere list used, NSphG=   76.
                        Lebedev-Laikov grids with approx.  5.0 points / Ang**2.
                        Smoothing algorithm: Karplus/York (Gamma=1.0000).
                        Polarization charges: spherical gaussians, with
                                              point-specific exponents (IZeta= 3).
                        Self-potential: point-specific (ISelfS= 7).
                        Self-field    : sphere-specific E.n sum rule (ISelfD= 2).
 1st derivatives      : Analytical E(r).r(x)/FMM algorithm (CHGder, D1EAlg=3).
                        Cavity 1st derivative terms included.
 Solvent              : Ethanol, Eps=  24.852000 Eps(inf)=   1.852593
 ------------------------------------------------------------------------------
 GePol: Number of generator spheres                  =      76
 GePol: Total number of spheres                      =      76
 GePol: Number of exposed spheres                    =      75 ( 98.68%)
 GePol: Number of points                             =    4992
 GePol: Average weight of points                     =       0.13
 GePol: Minimum weight of points                     =   0.23D-11
 GePol: Maximum weight of points                     =    0.20577
 GePol: Number of points with low weight             =     375
 GePol: Fraction of low-weight points (<1% of avg)   =       7.51%
 GePol: Cavity surface area                          =    628.393 Ang**2
 GePol: Cavity volume                                =    730.851 Ang**3
 Leave Link  301 at Fri Jan 14 19:11:35 2022, MaxMem=  6710886400 cpu:         0.8
 (Enter /usr/local/gqt/g09/l302.exe)
 NPDir=0 NMtPBC=     1 NCelOv=     1 NCel=       1 NClECP=     1 NCelD=      1
         NCelK=      1 NCelE2=     1 NClLst=     1 CellRange=     0.0.
 One-electron integrals computed using PRISM.
 NBasis=  1048 RedAO= T EigKep=  1.05D-06  NBF=  1048
 NBsUse=  1039 1.00D-06 EigRej=  9.23D-07 NBFU=  1039
 Precomputing XC quadrature grid using
 IXCGrd= 4 IRadAn=           0 IRanWt=          -1 IRanGd=           0 AccXCQ= 0.00D+00.
 Generated NRdTot=       0 NPtTot=           0 NUsed=           0 NTot=          32
 NSgBfM=  1026  1028  1029  1029  1029 MxSgAt=    76 MxSgA2=    76.
 Leave Link  302 at Fri Jan 14 19:11:39 2022, MaxMem=  6710886400 cpu:        56.2
 (Enter /usr/local/gqt/g09/l303.exe)
 DipDrv:  MaxL=1.
 Leave Link  303 at Fri Jan 14 19:11:39 2022, MaxMem=  6710886400 cpu:         3.3
 (Enter /usr/local/gqt/g09/l401.exe)
 ExpMin= 4.38D-02 ExpMax= 8.59D+03 ExpMxC= 1.30D+03 IAcc=2 IRadAn=         4 AccDes= 0.00D+00
 Harris functional with IExCor= 5547 and IRadAn=       4 diagonalized for initial guess.
 HarFok:  IExCor= 5547 AccDes= 0.00D+00 IRadAn=         4 IDoV= 1 UseB2=F ITyADJ=14
 ICtDFT=  3500011 ScaDFX=  1.000000  1.000000  1.000000  1.000000
 FoFCou: FMM=F IPFlag=           0 FMFlag=      100000 FMFlg1=        2001
         NFxFlg=           0 DoJE=T BraDBF=F KetDBF=T FulRan=T
         wScrn=  0.000000 ICntrl=     500 IOpCl=  0 I1Cent=   200000004 NGrid=           0
         NMat0=    1 NMatS0=      1 NMatT0=    0 NMatD0=    1 NMtDS0=    0 NMtDT0=    0
 Petite list used in FoFCou.
 Harris En= -1511.95586347476    
 JPrj=0 DoOrth=F DoCkMO=F.
 Leave Link  401 at Fri Jan 14 19:11:47 2022, MaxMem=  6710886400 cpu:       136.1
 (Enter /usr/local/gqt/g09/l502.exe)
 Closed shell SCF:
 Using DIIS extrapolation, IDIIS=  1040.
 Integral symmetry usage will be decided dynamically.
 IVT=     3575673 IEndB=     3575673 NGot=  6710886400 MDV=  6708505678
 LenX=  6708505678 LenY=  6707327368
 Requested convergence on RMS density matrix=1.00D-08 within 128 cycles.
 Requested convergence on MAX density matrix=1.00D-06.
 Requested convergence on             energy=1.00D-06.
 No special actions if energy rises.
 Fock matrices will be formed incrementally for  20 cycles.

 Cycle   1  Pass 1  IDiag  1:
 FoFJK:  IHMeth= 1 ICntrl=       0 DoSepK=T KAlg= 0 I1Cent=   0 FoldK=F
 IRaf=         1 NMat=   1 IRICut=       1 DoRegI=T DoRafI=F ISym2E= 0.
 FoFCou: FMM=T IPFlag=           0 FMFlag=      100000 FMFlg1=        2001
         NFxFlg=           0 DoJE=T BraDBF=F KetDBF=F FulRan=T
         wScrn=  0.000000 ICntrl=     500 IOpCl=  0 I1Cent=           0 NGrid=           0
         NMat0=    1 NMatS0=      1 NMatT0=    0 NMatD0=    1 NMtDS0=    0 NMtDT0=    0
 Symmetry not used in FoFCou.
 FMM levels:  10  Number of levels for PrismC:   9
 Inv3:  Mode=1 IEnd=    74760192.
 Iteration    1 A*A^-1 deviation from unit magnitude is 7.55D-15 for   2939.
 Iteration    1 A*A^-1 deviation from orthogonality  is 2.78D-15 for   4109   3896.
 Iteration    1 A^-1*A deviation from unit magnitude is 6.66D-15 for   2939.
 Iteration    1 A^-1*A deviation from orthogonality  is 8.51D-08 for   4002   3179.
 Iteration    2 A*A^-1 deviation from unit magnitude is 3.33D-15 for   1047.
 Iteration    2 A*A^-1 deviation from orthogonality  is 3.72D-15 for   3340    920.
 Iteration    2 A^-1*A deviation from unit magnitude is 1.22D-15 for   2194.
 Iteration    2 A^-1*A deviation from orthogonality  is 5.85D-16 for   3795   2366.
 E= -1560.55899830703    
 DIIS: error= 5.08D-02 at cycle   1 NSaved=   1.
 NSaved= 1 IEnMin= 1 EnMin= -1560.55899830703     IErMin= 1 ErrMin= 5.08D-02
 ErrMax= 5.08D-02  0.00D+00 EMaxC= 1.00D-01 BMatC= 3.77D+00 BMatP= 3.77D+00
 IDIUse=3 WtCom= 4.92D-01 WtEn= 5.08D-01
 Coeff-Com:  0.100D+01
 Coeff-En:   0.100D+01
 Coeff:      0.100D+01
 Gap=     0.148 Goal=   None    Shift=    0.000
 GapD=    0.148 DampG=1.000 DampE=0.500 DampFc=0.5000 IDamp=-1.
 Damping current iteration by 5.00D-01
 RMSDP=1.85D-02 MaxDP=2.96D+00              OVMax= 2.07D-01

 Cycle   2  Pass 1  IDiag  1:
 RMSU=  5.39D-03    CP:  8.60D-01
 E= -1560.72859792543     Delta-E=       -0.169599618403 Rises=F Damp=T
 DIIS: error= 2.33D-02 at cycle   2 NSaved=   2.
 NSaved= 2 IEnMin= 2 EnMin= -1560.72859792543     IErMin= 2 ErrMin= 2.33D-02
 ErrMax= 2.33D-02  0.00D+00 EMaxC= 1.00D-01 BMatC= 8.27D-01 BMatP= 3.77D+00
 IDIUse=3 WtCom= 7.67D-01 WtEn= 2.33D-01
 Coeff-Com: -0.469D+00 0.147D+01
 Coeff-En:   0.219D+00 0.781D+00
 Coeff:     -0.309D+00 0.131D+01
 Gap=     0.220 Goal=   None    Shift=    0.000
 RMSDP=1.27D-02 MaxDP=2.19D+00 DE=-1.70D-01 OVMax= 4.54D-01

 Cycle   3  Pass 1  IDiag  1:
 RMSU=  1.00D-02    CP:  7.91D-01 -2.56D-01
 E= -1560.04905103555     Delta-E=        0.679546889884 Rises=F Damp=F
 DIIS: error= 3.20D-02 at cycle   3 NSaved=   3.
 NSaved= 3 IEnMin= 2 EnMin= -1560.72859792543     IErMin= 2 ErrMin= 2.33D-02
 ErrMax= 3.20D-02  0.00D+00 EMaxC= 1.00D-01 BMatC= 1.06D+00 BMatP= 8.27D-01
 IDIUse=2 WtCom= 0.00D+00 WtEn= 1.00D+00
 Coeff-En:   0.000D+00 0.814D+00 0.186D+00
 Coeff:      0.000D+00 0.814D+00 0.186D+00
 Gap=     0.186 Goal=   None    Shift=    0.000
 RMSDP=8.37D-03 MaxDP=2.39D+00 DE= 6.80D-01 OVMax= 2.22D-01

 Cycle   4  Pass 1  IDiag  1:
 RMSU=  2.66D-03    CP:  7.31D-01  6.37D-01  4.59D-01
 E= -1561.07876315157     Delta-E=       -1.029712116023 Rises=F Damp=F
 DIIS: error= 1.30D-03 at cycle   4 NSaved=   4.
 NSaved= 4 IEnMin= 4 EnMin= -1561.07876315157     IErMin= 4 ErrMin= 1.30D-03
 ErrMax= 1.30D-03  0.00D+00 EMaxC= 1.00D-01 BMatC= 3.87D-03 BMatP= 8.27D-01
 IDIUse=3 WtCom= 9.87D-01 WtEn= 1.30D-02
 Coeff-Com: -0.802D-02 0.676D-01 0.343D-01 0.906D+00
 Coeff-En:   0.000D+00 0.000D+00 0.000D+00 0.100D+01
 Coeff:     -0.791D-02 0.667D-01 0.338D-01 0.907D+00
 Gap=     0.150 Goal=   None    Shift=    0.000
 RMSDP=1.32D-03 MaxDP=3.83D-01 DE=-1.03D+00 OVMax= 1.41D-02

 Cycle   5  Pass 1  IDiag  1:
 RMSU=  8.51D-04    CP:  7.16D-01  6.27D-01  4.04D-01  8.74D-01
 E= -1561.07866638111     Delta-E=        0.000096770458 Rises=F Damp=F
 DIIS: error= 1.58D-03 at cycle   5 NSaved=   5.
 NSaved= 5 IEnMin= 4 EnMin= -1561.07876315157     IErMin= 4 ErrMin= 1.30D-03
 ErrMax= 1.58D-03  0.00D+00 EMaxC= 1.00D-01 BMatC= 1.82D-03 BMatP= 3.87D-03
 IDIUse=3 WtCom= 9.84D-01 WtEn= 1.58D-02
 Coeff-Com:  0.113D-01 0.312D-02 0.410D-02 0.522D+00 0.459D+00
 Coeff-En:   0.000D+00 0.000D+00 0.000D+00 0.515D+00 0.485D+00
 Coeff:      0.111D-01 0.307D-02 0.403D-02 0.522D+00 0.460D+00
 Gap=     0.146 Goal=   None    Shift=    0.000
 RMSDP=5.13D-04 MaxDP=1.45D-01 DE= 9.68D-05 OVMax= 1.03D-02

 Cycle   6  Pass 1  IDiag  1:
 RMSU=  1.74D-04    CP:  7.19D-01  6.22D-01  4.31D-01  9.34D-01  6.20D-01
 E= -1561.08006017151     Delta-E=       -0.001393790400 Rises=F Damp=F
 DIIS: error= 7.58D-04 at cycle   6 NSaved=   6.
 NSaved= 6 IEnMin= 6 EnMin= -1561.08006017151     IErMin= 6 ErrMin= 7.58D-04
 ErrMax= 7.58D-04  0.00D+00 EMaxC= 1.00D-01 BMatC= 2.19D-04 BMatP= 1.82D-03
 IDIUse=3 WtCom= 9.92D-01 WtEn= 7.58D-03
 Coeff-Com:  0.106D-01-0.150D-01-0.614D-02 0.160D+00 0.276D+00 0.575D+00
 Coeff-En:   0.000D+00 0.000D+00 0.000D+00 0.000D+00 0.626D-01 0.937D+00
 Coeff:      0.106D-01-0.149D-01-0.610D-02 0.159D+00 0.274D+00 0.577D+00
 Gap=     0.146 Goal=   None    Shift=    0.000
 RMSDP=1.26D-04 MaxDP=4.24D-02 DE=-1.39D-03 OVMax= 4.73D-03

 Cycle   7  Pass 1  IDiag  1:
 RMSU=  8.47D-05    CP:  7.20D-01  6.16D-01  4.37D-01  9.43D-01  6.04D-01
                    CP:  1.05D+00
 E= -1561.08019842087     Delta-E=       -0.000138249357 Rises=F Damp=F
 DIIS: error= 2.96D-04 at cycle   7 NSaved=   7.
 NSaved= 7 IEnMin= 7 EnMin= -1561.08019842087     IErMin= 7 ErrMin= 2.96D-04
 ErrMax= 2.96D-04  0.00D+00 EMaxC= 1.00D-01 BMatC= 3.74D-05 BMatP= 2.19D-04
 IDIUse=3 WtCom= 9.97D-01 WtEn= 2.96D-03
 Coeff-Com:  0.336D-02-0.641D-02-0.285D-02 0.215D-01 0.101D+00 0.359D+00
 Coeff-Com:  0.524D+00
 Coeff-En:   0.000D+00 0.000D+00 0.000D+00 0.000D+00 0.000D+00 0.148D+00
 Coeff-En:   0.852D+00
 Coeff:      0.335D-02-0.639D-02-0.284D-02 0.214D-01 0.101D+00 0.359D+00
 Coeff:      0.525D+00
 Gap=     0.147 Goal=   None    Shift=    0.000
 RMSDP=8.83D-05 MaxDP=2.88D-02 DE=-1.38D-04 OVMax= 1.24D-03

 Cycle   8  Pass 1  IDiag  1:
 RMSU=  2.53D-05    CP:  7.19D-01  6.21D-01  4.33D-01  9.36D-01  6.35D-01
                    CP:  9.83D-01  7.77D-01
 E= -1561.08022747997     Delta-E=       -0.000029059102 Rises=F Damp=F
 DIIS: error= 5.32D-05 at cycle   8 NSaved=   8.
 NSaved= 8 IEnMin= 8 EnMin= -1561.08022747997     IErMin= 8 ErrMin= 5.32D-05
 ErrMax= 5.32D-05  0.00D+00 EMaxC= 1.00D-01 BMatC= 2.10D-06 BMatP= 3.74D-05
 IDIUse=1 WtCom= 1.00D+00 WtEn= 0.00D+00
 Coeff-Com:  0.384D-03-0.107D-02-0.417D-03-0.240D-02 0.324D-01 0.146D+00
 Coeff-Com:  0.273D+00 0.553D+00
 Coeff:      0.384D-03-0.107D-02-0.417D-03-0.240D-02 0.324D-01 0.146D+00
 Coeff:      0.273D+00 0.553D+00
 Gap=     0.147 Goal=   None    Shift=    0.000
 RMSDP=1.33D-05 MaxDP=3.28D-03 DE=-2.91D-05 OVMax= 3.85D-04

 Cycle   9  Pass 1  IDiag  1:
 RMSU=  7.46D-06    CP:  7.19D-01  6.20D-01  4.33D-01  9.36D-01  6.37D-01
                    CP:  9.90D-01  6.81D-01  9.20D-01
 E= -1561.08022915880     Delta-E=       -0.000001678825 Rises=F Damp=F
 DIIS: error= 1.90D-05 at cycle   9 NSaved=   9.
 NSaved= 9 IEnMin= 9 EnMin= -1561.08022915880     IErMin= 9 ErrMin= 1.90D-05
 ErrMax= 1.90D-05  0.00D+00 EMaxC= 1.00D-01 BMatC= 3.42D-07 BMatP= 2.10D-06
 IDIUse=1 WtCom= 1.00D+00 WtEn= 0.00D+00
 Coeff-Com:  0.275D-05-0.225D-03-0.395D-05-0.326D-02 0.124D-01 0.606D-01
 Coeff-Com:  0.125D+00 0.346D+00 0.460D+00
 Coeff:      0.275D-05-0.225D-03-0.395D-05-0.326D-02 0.124D-01 0.606D-01
 Coeff:      0.125D+00 0.346D+00 0.460D+00
 Gap=     0.147 Goal=   None    Shift=    0.000
 RMSDP=5.36D-06 MaxDP=7.36D-04 DE=-1.68D-06 OVMax= 1.56D-04

 Cycle  10  Pass 1  IDiag  1:
 RMSU=  2.01D-06    CP:  7.19D-01  6.20D-01  4.33D-01  9.36D-01  6.39D-01
                    CP:  9.90D-01  7.21D-01  8.40D-01  8.20D-01
 E= -1561.08022946245     Delta-E=       -0.000000303650 Rises=F Damp=F
 DIIS: error= 4.29D-06 at cycle  10 NSaved=  10.
 NSaved=10 IEnMin=10 EnMin= -1561.08022946245     IErMin=10 ErrMin= 4.29D-06
 ErrMax= 4.29D-06  0.00D+00 EMaxC= 1.00D-01 BMatC= 2.39D-08 BMatP= 3.42D-07
 IDIUse=1 WtCom= 1.00D+00 WtEn= 0.00D+00
 Coeff-Com: -0.121D-04-0.589D-04 0.610D-04-0.142D-02 0.297D-02 0.137D-01
 Coeff-Com:  0.311D-01 0.110D+00 0.223D+00 0.621D+00
 Coeff:     -0.121D-04-0.589D-04 0.610D-04-0.142D-02 0.297D-02 0.137D-01
 Coeff:      0.311D-01 0.110D+00 0.223D+00 0.621D+00
 Gap=     0.147 Goal=   None    Shift=    0.000
 RMSDP=2.26D-06 MaxDP=3.11D-04 DE=-3.04D-07 OVMax= 5.02D-05

 Cycle  11  Pass 1  IDiag  1:
 RMSU=  1.10D-06    CP:  7.19D-01  6.20D-01  4.33D-01  9.36D-01  6.38D-01
                    CP:  9.92D-01  7.13D-01  8.50D-01  7.88D-01  7.57D-01
 E= -1561.08022948419     Delta-E=       -0.000000021744 Rises=F Damp=F
 DIIS: error= 1.40D-06 at cycle  11 NSaved=  11.
 NSaved=11 IEnMin=11 EnMin= -1561.08022948419     IErMin=11 ErrMin= 1.40D-06
 ErrMax= 1.40D-06  0.00D+00 EMaxC= 1.00D-01 BMatC= 4.11D-09 BMatP= 2.39D-08
 IDIUse=1 WtCom= 1.00D+00 WtEn= 0.00D+00
 Coeff-Com:  0.201D-04-0.640D-04 0.210D-04-0.401D-03 0.429D-03 0.826D-03
 Coeff-Com:  0.311D-02 0.201D-01 0.623D-01 0.355D+00 0.559D+00
 Coeff:      0.201D-04-0.640D-04 0.210D-04-0.401D-03 0.429D-03 0.826D-03
 Coeff:      0.311D-02 0.201D-01 0.623D-01 0.355D+00 0.559D+00
 Gap=     0.147 Goal=   None    Shift=    0.000
 RMSDP=6.43D-07 MaxDP=1.28D-04 DE=-2.17D-08 OVMax= 1.75D-05

 Cycle  12  Pass 1  IDiag  1:
 RMSU=  3.28D-07    CP:  7.19D-01  6.20D-01  4.33D-01  9.36D-01  6.39D-01
                    CP:  9.91D-01  7.15D-01  8.49D-01  8.06D-01  8.10D-01
                    CP:  7.38D-01
 E= -1561.08022948796     Delta-E=       -0.000000003772 Rises=F Damp=F
 DIIS: error= 5.10D-07 at cycle  12 NSaved=  12.
 NSaved=12 IEnMin=12 EnMin= -1561.08022948796     IErMin=12 ErrMin= 5.10D-07
 ErrMax= 5.10D-07  0.00D+00 EMaxC= 1.00D-01 BMatC= 3.59D-10 BMatP= 4.11D-09
 IDIUse=1 WtCom= 1.00D+00 WtEn= 0.00D+00
 Coeff-Com:  0.959D-05-0.214D-04 0.918D-05-0.436D-04-0.126D-03-0.134D-02
 Coeff-Com: -0.225D-02-0.354D-02 0.305D-02 0.110D+00 0.283D+00 0.611D+00
 Coeff:      0.959D-05-0.214D-04 0.918D-05-0.436D-04-0.126D-03-0.134D-02
 Coeff:     -0.225D-02-0.354D-02 0.305D-02 0.110D+00 0.283D+00 0.611D+00
 Gap=     0.147 Goal=   None    Shift=    0.000
 RMSDP=2.60D-07 MaxDP=4.06D-05 DE=-3.77D-09 OVMax= 8.62D-06

 Cycle  13  Pass 1  IDiag  1:
 RMSU=  1.59D-07    CP:  7.19D-01  6.20D-01  4.33D-01  9.36D-01  6.39D-01
                    CP:  9.91D-01  7.16D-01  8.54D-01  8.18D-01  8.34D-01
                    CP:  7.27D-01  7.65D-01
 E= -1561.08022948781     Delta-E=        0.000000000148 Rises=F Damp=F
 DIIS: error= 2.05D-07 at cycle  13 NSaved=  13.
 NSaved=13 IEnMin=12 EnMin= -1561.08022948796     IErMin=13 ErrMin= 2.05D-07
 ErrMax= 2.05D-07  0.00D+00 EMaxC= 1.00D-01 BMatC= 6.24D-11 BMatP= 3.59D-10
 IDIUse=1 WtCom= 1.00D+00 WtEn= 0.00D+00
 Coeff-Com:  0.283D-05-0.359D-05 0.272D-05 0.304D-04-0.135D-03-0.952D-03
 Coeff-Com: -0.183D-02-0.536D-02-0.753D-02 0.138D-01 0.825D-01 0.357D+00
 Coeff-Com:  0.562D+00
 Coeff:      0.283D-05-0.359D-05 0.272D-05 0.304D-04-0.135D-03-0.952D-03
 Coeff:     -0.183D-02-0.536D-02-0.753D-02 0.138D-01 0.825D-01 0.357D+00
 Coeff:      0.562D+00
 Gap=     0.147 Goal=   None    Shift=    0.000
 RMSDP=1.00D-07 MaxDP=2.85D-05 DE= 1.48D-10 OVMax= 2.22D-06

 Cycle  14  Pass 1  IDiag  1:
 RMSU=  4.17D-08    CP:  7.19D-01  6.20D-01  4.33D-01  9.36D-01  6.39D-01
                    CP:  9.91D-01  7.16D-01  8.54D-01  8.19D-01  8.32D-01
                    CP:  7.30D-01  8.64D-01  7.50D-01
 E= -1561.08022948781     Delta-E=        0.000000000009 Rises=F Damp=F
 DIIS: error= 4.65D-08 at cycle  14 NSaved=  14.
 NSaved=14 IEnMin=12 EnMin= -1561.08022948796     IErMin=14 ErrMin= 4.65D-08
 ErrMax= 4.65D-08  0.00D+00 EMaxC= 1.00D-01 BMatC= 3.57D-12 BMatP= 6.24D-11
 IDIUse=1 WtCom= 1.00D+00 WtEn= 0.00D+00
 Coeff-Com:  0.297D-06 0.382D-06 0.650D-06 0.135D-04-0.410D-04-0.281D-03
 Coeff-Com: -0.545D-03-0.192D-02-0.336D-02-0.276D-02 0.119D-01 0.114D+00
 Coeff-Com:  0.267D+00 0.616D+00
 Coeff:      0.297D-06 0.382D-06 0.650D-06 0.135D-04-0.410D-04-0.281D-03
 Coeff:     -0.545D-03-0.192D-02-0.336D-02-0.276D-02 0.119D-01 0.114D+00
 Coeff:      0.267D+00 0.616D+00
 Gap=     0.147 Goal=   None    Shift=    0.000
 RMSDP=3.73D-08 MaxDP=5.93D-06 DE= 9.09D-12 OVMax= 5.77D-07

 Cycle  15  Pass 1  IDiag  1:
 RMSU=  3.10D-08    CP:  7.19D-01  6.20D-01  4.33D-01  9.36D-01  6.39D-01
                    CP:  9.91D-01  7.16D-01  8.54D-01  8.19D-01  8.32D-01
                    CP:  7.40D-01  8.64D-01  7.75D-01  7.27D-01
 E= -1561.08022948783     Delta-E=       -0.000000000027 Rises=F Damp=F
 DIIS: error= 2.24D-08 at cycle  15 NSaved=  15.
 NSaved=15 IEnMin=12 EnMin= -1561.08022948796     IErMin=15 ErrMin= 2.24D-08
 ErrMax= 2.24D-08  0.00D+00 EMaxC= 1.00D-01 BMatC= 6.23D-13 BMatP= 3.57D-12
 IDIUse=1 WtCom= 1.00D+00 WtEn= 0.00D+00
 Coeff-Com: -0.792D-07 0.515D-06 0.819D-07 0.515D-05-0.879D-05-0.651D-04
[...]
 .00275167,-0.00192508,-0.00124024,0.01203111,-0.01248223,0.01145102,-0
 .07897925,0.08440984,-0.11739988,-0.02040000,0.02112232,-0.00856912,0.
 00107721,0.00011418,-0.00541255,0.00000021,-0.00000229,-0.00000505,0.0
 0000002,0.00000170,0.00000137,-0.00000043,0.00000118,0.00000093,-0.000
 00231,0.00000188,0.00000099,-0.00000861,0.00000018,0.00000443,-0.00000
 349,0.00003331,0.00003318,-0.00001245,0.00000265,-0.00000216,0.0000014
 0,-0.00000282,-0.00000361,-0.00000861,-0.00001305,-0.00000242,0.000001
 59,0.00000372,-0.00000103,-0.00000155,-0.00000571,-0.00000039,-0.00000
 196,-0.00000492,0.00000266,-0.00000433,-0.00000545,-0.00000374,0.00000
 930,0.00002979,-0.00000832,-0.00001387,-0.00000278,0.00000032,-0.00003
 898,-0.00002935,-0.00001520,0.00000507,0.00000388,-0.00000248,-0.00000
 165,0.00000187,-0.00000621,-0.00000199,0.00000178,-0.00000443,-0.00000
 335,-0.00000345,-0.00000105,0.00056692,-0.00058392,0.00038497,-0.00073
 266,0.00026750,0.00083539,0.08417564,-0.09084178,0.11998126,0.00008056
 ,0.00002015,0.00000114,-0.00006549,-0.00002770,0.00000715,0.00000072,0
 .00001572,-0.00001393,0.00000041,-0.00000100,0.00000228,0.00000276,0.0
 0000002,0.00000030,0.,-0.00000006,-0.00000023,0.00000179,0.00000077,-0
 .00000029,-0.00000013,0.00000002,-0.00000002,-0.00000008,-0.00000018,0
 .00000003,-0.00000002,0.00000006,0.,-0.00000006,0.00000011,0.00000023,
 -0.00000005,-0.00000010,-0.00000012,0.00000078,-0.00000049,0.00000050,
 -0.00000015,0.00000004,-0.00000031,0.,0.00000036,0.00000016,-0.0000001
 1,-0.00000015,0.00000033,-0.00000024,0.00000003,-0.00000030,-0.0000029
 9,-0.00000240,-0.00000130,-0.00000164,-0.00000159,0.00000042,0.0000032
 1,0.00000338,0.00000133,-0.00000018,-0.00000180,0.00000332,-0.00000187
 ,-0.00000178,0.00000081,-0.00000064,0.00000023,-0.00000090,-0.00000075
 ,0.00000003,-0.00000042,-0.00005921,0.00034104,0.00060910,-0.00021726,
 0.00002450,-0.00025338,-0.00001113,0.00002913,0.00000797,-0.00005798,-
 0.00004394,0.00001983,0.00003651,0.00013716,-0.00001854,-0.00003571,0.
 00005878,0.00003092,0.00004737,-0.00003099,-0.00002002,-0.00005821,0.0
 0000053,0.00000845,0.00000128,0.00003045,0.00004637,0.00000718,0.00006
 868,0.00002956,0.00001963,-0.00003296,-0.00000909,-0.00001133,0.000020
 97,-0.00000197,-0.00004386,0.00000882,-0.00000373,-0.00000621,0.000017
 51,0.00000955,0.00001293,-0.00004688,-0.00002694,-0.00004047,-0.000029
 37,0.00014186,-0.00001570,-0.00005152,0.00001301,-0.00000169,-0.000005
 77,-0.00003078,0.00002015,0.00000736,-0.00001668,-0.00001775,-0.000007
 09,0.00000003,0.00002722,0.00002395,-0.00004766,0.00232345,0.00499382,
 -0.00205588,-0.00049812,-0.00059495,-0.00067211,0.00450372,0.00291625,
 -0.00012754,0.00403189,0.00014049,-0.00223458,-0.15951889,0.10914454,0
 .10047181,-0.00764761,0.01016584,0.01202314,0.00000760,-0.00000993,-0.
 00000583,0.00000200,0.00000993,0.00000358,-0.00000238,0.00000564,0.000
 00348,-0.00000841,0.00000371,0.00001286,-0.00001505,-0.00001153,-0.000
 00124,-0.00004168,0.00001186,0.00002447,-0.00001022,0.00000149,-0.0000
 0108,-0.00000203,-0.00000753,-0.00000925,-0.00000329,-0.00001541,0.000
 00019,0.00004492,0.00000496,0.00001035,0.00000792,-0.00000705,-0.00000
 159,-0.00000321,-0.00000999,0.00000307,-0.00000322,-0.00001104,-0.0000
 0954,0.00004866,0.00005243,0.00000661,0.00000718,-0.00000143,-0.000003
 50,-0.00002049,-0.00001349,0.00004168,0.00000603,0.00000756,-0.0000046
 3,0.00000017,0.00000694,-0.00000330,-0.00000195,0.00000563,-0.00000935
 ,-0.00000133,-0.00000256,0.00000892,-0.00053882,-0.00049288,0.00003652
 ,0.00007963,0.00003717,-0.00012429,-0.00174865,-0.00246006,0.00004713,
 0.16095092,-0.00009092,-0.00001924,-0.00000419,0.00007268,0.00002724,-
 0.00000641,-0.00000133,-0.00001424,0.00001492,-0.00000052,0.00000113,-
 0.00000281,-0.00000184,-0.00000139,-0.00000082,-0.00000003,0.00000006,
 0.00000015,-0.00000158,-0.00000031,0.00000015,-0.00000032,0.00000021,-
 0.00000013,-0.00000005,0.00000011,-0.00000006,0.00000018,-0.00000010,0
 .,0.00000020,-0.00000003,-0.00000021,0.00000017,-0.00000012,0.,-0.0000
 0104,0.00000085,-0.00000027,0.00000008,0.00000006,0.00000020,0.0000000
 7,-0.00000044,0.,-0.00000002,0.00000023,-0.00000024,0.00000038,-0.0000
 0014,0.00000032,0.00000247,0.00000129,0.00000092,0.00000159,0.00000073
 ,-0.00000043,-0.00000266,-0.00000184,-0.00000069,0.00000038,0.00000144
 ,-0.00000322,0.00000174,0.00000183,-0.00000055,0.00000051,-0.00000003,
 0.00000086,0.00000134,-0.00000022,0.00000040,0.00028586,-0.00026231,-0
 .00087179,0.00012410,0.00008813,0.00025152,0.00001341,-0.00004950,-0.0
 0001516,0.00005942,0.00009265,0.00000225,0.00011985,-0.00014893,0.0000
 9982,0.00002222,-0.00001734,-0.00004010,-0.00001859,-0.00000336,-0.000
 01902,0.00000670,-0.00001514,-0.00000543,0.00000903,0.00001109,-0.0000
 1232,-0.00002802,-0.00007179,-0.00006002,0.00000707,0.00000718,-0.0000
 1325,-0.00000729,-0.00000505,0.00000272,0.00000537,-0.00000207,-0.0000
 0186,0.00001072,-0.00000682,-0.00000884,-0.00001032,0.00002186,0.00000
 466,0.00002017,0.00006318,-0.00010253,-0.00000484,-0.00008912,0.000069
 97,0.00000544,-0.00000459,-0.00004160,0.00002409,-0.00001134,0.0000371
 3,-0.00000671,-0.00001387,0.00003430,-0.00004797,-0.00001534,0.0000092
 4,0.00514415,0.00217314,0.00291062,-0.00058561,-0.00066026,0.00055973,
 0.00294947,0.00448423,0.00127174,-0.00192624,0.00550970,0.00363923,0.1
 0910763,-0.13713556,-0.08810989,0.01210881,-0.00696739,-0.01240293,-0.
 00000054,0.,0.00001463,0.00000085,-0.00001067,-0.00000833,0.00000189,-
 0.00000745,-0.00000204,0.00000937,-0.00000809,-0.00000766,0.00001213,0
 .00001562,0.00000502,-0.00001777,-0.00001690,-0.00001776,-0.00000233,-
 0.00000471,-0.00000013,0.00000029,0.00000656,0.00000636,0.00000300,0.0
 0000019,-0.00000010,0.00000444,0.00000724,0.00000353,-0.00000005,0.000
 00547,0.00000285,-0.00000215,0.00000680,0.00000174,0.00000739,0.000005
 27,0.00000531,0.00002267,-0.00003350,0.00001848,0.00001209,-0.00000612
 ,-0.00000064,0.00005125,0.00003894,0.00000330,-0.00000858,-0.00000975,
 0.00000946,0.00000005,-0.00000002,0.00000905,0.00000128,-0.00000598,0.
 00001057,0.00000151,0.00000580,-0.00000765,-0.00050528,-0.00052676,-0.
 00012748,-0.00006343,0.00014532,0.00019921,-0.00242756,-0.00184026,-0.
 00056382,-0.12166304,0.13687631,-0.00000093,-0.00000064,0.00000097,0.0
 0000084,0.00000041,-0.00000077,-0.00000018,0.00000019,-0.00000024,0.00
 000002,0.00000014,0.00000031,-0.00000029,-0.00000074,-0.00000002,-0.00
 000004,-0.00000006,0.00000002,-0.00000035,-0.00000011,0.00000017,-0.00
 000015,0.00000011,-0.00000008,-0.00000001,0.00000005,0.00000002,0.0000
 0009,-0.00000006,0.,0.,0.00000001,-0.00000003,0.,0.00000003,-0.0000000
 6,-0.00000004,-0.00000004,-0.00000013,-0.00000007,0.00000002,0.,-0.000
 00003,-0.00000016,0.00000010,0.00000002,0.00000014,-0.00000003,0.00000
 009,-0.00000006,0.00000006,0.00000072,0.00000053,0.00000018,0.00000057
 ,0.00000034,-0.00000027,-0.00000091,-0.00000070,0.00000003,0.00000021,
 -0.00000013,0.00000002,0.00000007,0.00000017,-0.00000016,0.00000019,0.
 00000004,0.00000029,0.00000024,-0.00000008,-0.00000001,-0.00046364,0.0
 0051774,0.00035907,-0.00007242,0.00001739,-0.00013577,-0.00004595,-0.0
 0002606,0.00001898,-0.00000317,0.00002778,0.00002892,0.00004379,0.0000
 0788,-0.00001521,0.00000610,0.00001301,0.00002468,0.00001348,-0.000010
 26,0.,-0.00001798,-0.00000288,-0.00000012,-0.00000174,0.00001481,0.000
 02139,-0.00000484,0.00001404,0.00000168,-0.00001424,0.00000806,0.00000
 642,0.00000257,-0.00000592,-0.00000147,0.00001255,-0.00000037,0.000001
 04,0.00000286,-0.00000715,0.00000161,-0.00001237,-0.00000007,-0.000000
 67,0.00004102,-0.00005778,0.00005738,-0.00002001,-0.00002815,0.0000028
 7,0.00001329,0.00000228,-0.00001656,0.00001277,0.00000102,0.00000358,-
 0.00000635,-0.00000592,0.00001241,-0.00001009,0.00000498,-0.00001726,-
 0.00191129,0.00240956,-0.00028551,-0.00059371,0.00057397,-0.00067785,-
 0.00053270,0.00170248,-0.00536813,0.02048399,-0.01858590,-0.01188987,0
 .10061047,-0.08822220,-0.14828359,-0.01051546,0.00968404,0.01088738,0.
 00000164,0.00000755,-0.00000431,-0.00000013,0.00000214,-0.00000130,-0.
 00000034,0.00000077,-0.00000112,-0.00000042,0.00000095,0.00000327,0.00
 000244,-0.00000412,-0.00000184,-0.00000090,-0.00001057,-0.00000840,0.0
 0000398,-0.00000030,0.00000311,-0.00000111,-0.00000020,-0.00000058,0.0
 0000419,0.00000442,0.00000004,-0.00000668,0.00000009,0.00000187,-0.000
 00075,0.00000297,0.00000107,0.00000083,0.00000184,-0.00000197,0.000002
 44,0.00000309,0.00000238,-0.00000449,-0.00001160,-0.00000644,0.0000017
 5,0.00000205,0.00000279,0.00001509,0.00000463,0.00001214,0.00000002,0.
 00000215,-0.00000032,0.00000089,0.00000049,0.00000179,0.00000037,0.000
 00073,0.00000018,0.00000079,-0.00000048,0.00000083,0.00002800,-0.00013
 078,0.00007531,0.00097463,-0.00089228,-0.00068943,-0.00050437,-0.00002
 919,0.00126370,-0.10762572,0.09353560,0.15373280,-0.00002842,0.0000003
 7,0.00002594,0.00002688,0.00000417,-0.00002307,-0.00000593,0.00000222,
 0.00001304,0.00000170,-0.00000051,-0.00000490,-0.00000199,-0.00000668,
 0.00000152,-0.00000043,-0.00000008,-0.00000018,-0.00000244,-0.00000048
 ,0.00000122,-0.00000072,0.00000043,-0.00000061,-0.00000009,0.00000015,
 -0.00000003,0.00000051,-0.00000018,-0.00000010,0.00000002,-0.00000056,
 -0.00000013,0.00000013,-0.00000021,-0.00000008,-0.00000080,0.00000070,
 0.00000111,-0.00000032,0.00000008,-0.00000016,-0.00000019,-0.00000097,
 0.00000067,0.00000009,0.00000111,-0.00000032,0.00000061,-0.00000044,0.
 00000012,0.00000305,0.00000183,-0.00000043,0.00000249,0.00000121,-0.00
 000210,-0.00000339,-0.00000215,0.00000157,0.00000114,-0.00000270,-0.00
 000302,0.00000099,0.00000159,-0.00000028,-0.00000003,0.00000021,0.0000
 0045,0.00000260,0.00000002,0.00000022,-0.00108731,-0.00255951,0.000182
 95,0.00024791,-0.00005979,0.00017225,-0.00002713,-0.00011039,-0.000120
 57,-0.00013267,-0.00009461,0.00012774,-0.00053382,0.00041218,-0.000170
 24,0.00003367,-0.00001931,-0.00006141,-0.00001659,0.00000381,-0.000000
 33,0.00002115,-0.00001718,-0.00001105,0.00000779,0.00000915,-0.0000224
 4,0.00000347,0.00011058,0.00029342,-0.00070075,0.00019229,-0.00010323,
 0.00018435,-0.00016123,-0.00008001,0.00001210,-0.00000647,0.00004818,-
 0.00001450,-0.00002104,0.00000236,-0.00006286,-0.00004775,-0.00004051,
 -0.00004472,0.00017011,-0.00025335,0.00038559,0.00024288,-0.00008813,-
 0.00004170,0.00007629,-0.00006868,0.00005406,-0.00003584,0.00007076,-0
 .00007805,-0.00000021,0.00005689,-0.00013504,0.00003604,-0.00016417,0.
 00400663,-0.00241981,0.01947509,0.00091489,0.00560899,0.00217753,-0.00
 118708,0.00004979,-0.00003163,0.00143669,0.00611763,-0.00122757,0.0041
 5640,0.00184621,-0.02086146,-0.04928940,0.00988183,0.00791815,-0.00000
 712,0.00000443,0.00001009,0.00000028,-0.00001023,-0.00000169,0.0000006
 8,-0.00000327,-0.00000401,0.00000833,-0.00000752,-0.00000656,0.0000659
 6,-0.00000833,-0.00011105,-0.00162534,-0.00098222,-0.00077251,0.000068
 53,-0.00004370,-0.00000541,-0.00001242,0.00002392,0.00002127,0.0000858
 7,0.00011354,0.00002258,0.00000150,-0.00002374,-0.00000541,0.00001213,
 0.00004080,-0.00001328,0.00000323,0.00001763,-0.00001612,0.00001599,0.
 00000294,0.00000680,0.00008448,0.00003876,0.00007807,0.00004437,0.0000
 1582,-0.00003721,0.00008755,-0.00046399,-0.00010558,-0.00002126,-0.000
 00745,0.00002605,-0.00000539,-0.00002112,0.00000185,0.00000821,-0.0000
 1556,0.00001784,0.00000584,0.00000649,0.00000140,0.00020661,0.00005008
 ,0.00101016,-0.00044385,-0.00060148,-0.00005991,0.00006663,0.00009901,
 -0.00095546,-0.00156031,-0.00280690,0.00009087,0.04480090,0.00008014,0
 .00002631,0.00001215,-0.00006149,-0.00003376,0.00000052,-0.00000262,0.
 00002200,-0.00001187,0.00000168,-0.00000140,0.00000196,0.00000143,-0.0
 0000368,0.00000015,-0.00000007,0.00000018,-0.00000010,0.00000191,0.000
 00113,-0.00000101,-0.00000005,-0.00000009,0.00000021,-0.00000021,-0.00
 000025,0.,-0.00000007,0.00000005,0.00000002,0.00000009,0.00000033,-0.0
 0000004,0.00000004,-0.00000004,-0.00000021,0.00000051,-0.00000007,0.00
 000030,0.00000006,0.00000014,-0.00000006,0.00000027,0.00000043,0.00000
 006,-0.00000008,-0.00000024,0.00000049,-0.00000015,-0.00000006,-0.0000
 0019,-0.00000286,-0.00000286,-0.00000031,-0.00000164,-0.00000180,0.000
 00114,0.00000298,0.00000350,0.00000008,0.00000028,-0.00000429,0.000001
 98,-0.00000152,-0.00000131,0.00000072,-0.00000001,0.00000067,-0.000000
 35,0.00000058,0.00000007,-0.00000046,-0.00196579,-0.00136873,-0.000062
 41,-0.00002247,-0.00022518,0.00004566,-0.00004818,-0.00002680,-0.00000
 372,-0.00014400,-0.00017662,0.00003480,-0.00046940,0.00033005,-0.00000
 609,0.00002485,0.00004865,0.00004097,0.00001758,0.00000161,-0.00000327
 ,-0.00001305,-0.00000304,-0.00000094,-0.00000591,0.00002945,-0.0000173
 5,0.00006224,0.00015900,0.00009305,-0.00016976,-0.00006031,0.00000435,
 0.00002864,-0.00004050,-0.00000853,-0.00003032,0.00000535,0.00000230,0
 .00001638,-0.00002401,0.00001537,-0.00009020,0.00001982,-0.00005142,0.
 00106506,-0.00038725,-0.00026708,-0.00005237,-0.00146902,0.00029812,-0
 .00011421,-0.00013004,0.00027459,-0.00013502,0.00007037,-0.00010595,0.
 00006842,0.00003264,-0.00017654,-0.00007642,0.00015411,0.00039945,-0.0
 0041810,0.00500327,-0.01783596,0.00571019,0.00129683,-0.00161280,-0.00
 002143,-0.00108082,-0.00008526,0.00602065,0.00143510,0.00168955,0.0001
 2257,0.00240555,0.02125063,0.00938318,-0.04803772,0.02174750,-0.000010
 70,-0.00000471,-0.00001661,0.00000043,0.00000359,0.00000225,-0.0000016
 8,0.00000351,0.00000169,-0.00000481,0.00000530,-0.00000160,0.00002556,
 -0.00001539,-0.00005115,-0.00097164,-0.00005807,-0.00043979,0.00011340
 ,0.00000177,0.00004119,-0.00000299,0.00000510,-0.00000097,0.00003563,0
 .00002430,0.00000432,0.00002558,-0.00001668,0.00001074,0.00001101,0.00
 000840,0.00000110,-0.00000093,0.00000063,-0.00000629,0.00001630,0.0000
 0717,0.00000424,0.00009455,-0.00000491,0.00005119,0.00002451,0.0000004
 4,-0.00000741,-0.00017394,-0.00128415,-0.00015993,0.00004377,0.0000334
 2,-0.00002543,-0.00001605,0.00003056,-0.00004032,-0.00001783,-0.000029
 28,-0.00004132,-0.00006081,-0.00000061,-0.00004093,0.00010178,0.000395
 47,-0.00093727,-0.00059656,-0.00046381,-0.00003270,-0.00004381,-0.0000
 5734,0.00094550,-0.00273142,-0.00161177,-0.00053571,-0.01462165,0.0450
 6034,-0.00000437,-0.00000471,-0.00000685,0.00000372,0.00000265,0.00000
 741,0.00000296,-0.00000246,-0.00000512,-0.00000077,0.00000066,0.000002
 61,0.00000048,0.00000272,-0.00000190,0.00000011,0.00000029,0.00000018,
 0.00000066,0.00000029,-0.00000082,0.00000023,-0.00000027,0.00000043,0.
 00000006,-0.00000005,-0.00000002,-0.00000017,0.,0.00000003,0.00000029,
 0.00000002,-0.00000007,-0.00000012,0.00000019,0.00000002,0.00000013,-0
 .00000034,-0.00000061,0.00000020,0.00000003,0.00000018,0.00000019,0.00
 000032,-0.00000040,-0.00000005,-0.00000034,0.00000009,-0.00000018,0.00
 000015,0.00000006,-0.00000078,-0.00000044,0.00000090,-0.00000076,-0.00
 000037,0.00000125,0.00000079,0.00000033,-0.00000159,-0.00000087,0.0000
 0131,0.00000117,-0.00000012,-0.00000029,0.,0.00000065,0.00000014,0.000
 00022,-0.00000083,-0.00000004,-0.00000005,-0.00091693,0.00057560,-0.00
 039580,0.00009893,-0.00000539,0.00006337,-0.00003057,0.00000898,0.0000
 0587,0.00001148,0.00003132,0.00001660,0.00002293,-0.00009973,0.0000908
 8,0.00002955,0.00000740,0.00002784,-0.00000353,0.00000282,0.00000892,0
 .00001020,0.00000428,-0.00000286,0.00001172,-0.00000236,-0.00001512,0.
 00008919,-0.00006450,-0.00019910,0.00006168,-0.00029855,-0.00041518,-0
 .00022011,0.00015314,0.00002381,0.00002737,0.00000538,-0.00002492,0.00
 002621,0.00000012,-0.00000297,0.00002926,0.00005825,0.00002630,-0.0005
 8518,0.00056129,0.00029602,0.00040220,0.00170528,0.00006878,-0.0000730
 2,-0.00000239,0.00041682,-0.00031914,-0.00009991,-0.00018888,0.0001737
 4,0.00018861,-0.00031203,0.00022283,-0.00036046,0.00045730,-0.00106011
 ,0.00279150,-0.01282317,0.00266620,-0.00181805,0.00035112,-0.00002879,
 -0.00017628,0.00059744,-0.00141118,0.00210434,0.00114454,0.00195698,-0
 .00082480,-0.00932492,0.00765059,0.02021886,-0.34873537,-0.00000179,0.
 00000286,-0.00000195,0.00000014,-0.00000341,-0.00000291,0.00000088,-0.
 00000088,-0.00000119,0.00000253,-0.00000279,-0.00000586,-0.00002904,0.
 00001819,0.00005314,-0.00120947,-0.00008117,0.00031343,-0.00019593,0.0
 0001214,-0.00003818,0.00001216,-0.00001392,-0.00001621,-0.00006972,-0.
 00011371,-0.00003572,-0.00001872,-0.00000144,0.00000748,-0.00000926,-0
 .00002297,0.00001252,-0.00000356,-0.00000772,0.00000998,-0.00000456,0.
 00000903,-0.00000064,-0.00002028,-0.00003905,-0.00003861,-0.00002422,-
 0.00001276,0.00002811,-0.00044512,0.00011888,-0.00025995,0.00000810,0.
 00002250,0.00001943,-0.00000977,-0.00000870,-0.00003344,-0.00000723,0.
 00002521,0.00000949,-0.00000668,-0.00001527,-0.00001224,-0.00017917,0.
 00021030,-0.00062681,-0.00007433,-0.00003136,-0.00010501,0.00015730,-0
 .00006391,-0.00049259,-0.00029242,-0.00027557,0.00087866,-0.00642377,-
 0.02438903,0.36918664\\0.00001286,-0.00000060,0.00000012,-0.00000124,-
 0.00000770,0.00000116,-0.00000415,0.00001453,0.00000178,-0.00000014,0.
 00000773,0.00000374,0.00000100,0.00000503,0.00000671,0.00000019,-0.000
 00166,0.00000128,0.00000031,0.00000003,-0.00000393,0.00000274,-0.00000
 189,0.00000039,-0.00000118,-0.00000038,0.00000561,-0.00000012,-0.00000
 081,0.00000131,-0.00000212,-0.00000069,-0.00000598,0.00000245,0.000004
 08,-0.00000731,-0.00000091,0.00000223,0.00000256,-0.00000117,-0.000003
 99,0.00000145,-0.00000228,-0.00000057,0.00000138,0.00000143,-0.0000016
 5,-0.00000573,0.00000127,-0.00000055,-0.00000358,0.00000028,0.00001422
 ,0.00000160,0.00000333,0.00000941,0.00000137,-0.00000303,-0.00000366,0
 .00000229,-0.00000250,0.00000635,-0.00000294,0.,0.00000981,0.00001052,
 0.00000057,0.00000310,0.00000864,0.00000067,0.00000672,0.00000720,0.00
 000179,0.00000026,-0.00000099,-0.00000082,-0.00000020,-0.00000630,0.00
 000436,0.00000137,-0.00000641,-0.00000600,0.00001619,-0.00000288,-0.00
 000573,-0.00000755,-0.00000160,0.00000275,0.00000342,-0.00001032,0.000
 00187,0.00000550,-0.00001157,0.00000332,0.00000658,-0.00001234,0.00000
 150,0.00000554,-0.00000825,-0.00000522,0.00000202,0.00000439,-0.000001
 54,-0.00000575,0.00000359,0.00000031,-0.00000795,0.00000681,-0.0000031
 9,-0.00000455,0.00001032,-0.00000114,0.00000058,0.00000815,0.00000226,
 0.00000011,0.00000780,-0.00000084,-0.00000373,-0.00000433,0.00000186,-
 0.00000669,-0.00000722,0.00000079,-0.00000958,-0.00000633,-0.00000118,
 -0.00001100,-0.00000884,0.00000078,-0.00000973,-0.00000849,0.00000212,
 -0.00000801,-0.00000273,0.00000119,0.00000089,0.00000001,-0.00000026,0
 .00000417,-0.00000146,0.00000112,0.00000411,0.00000326,-0.00000070,0.0
 0000327,0.00000474,-0.00000163,0.00000043,0.00000271,-0.00000078,-0.00
 000092,0.00000015,0.00000227,0.00000112,-0.00000911,0.00000348,0.00000
 548,-0.00001430,0.00000312,0.00000846,-0.00001333,0.00000226,0.0000070
 2,-0.00000800,0.00000113,0.00000077,0.00000516,-0.00000010,-0.00000569
 ,0.00000423,-0.00000077,-0.00000618,0.00000198,-0.00000330,-0.00000725
 ,0.00000752,-0.00000220,-0.00000687,0.00000896,-0.00000280,-0.00000327
 ,0.00001041,-0.00000239,-0.00000547,0.00001416,-0.00000222,0.00000377,
 0.00001417,-0.00000128,-0.00000032,0.00000875,-0.00000195,0.00000156,0
 .00000605,-0.00000166,0.00000385,0.00000575,0.00000020,-0.00000332,-0.
 00000551,0.00000053,-0.00001050,-0.00000876,0.00000024,-0.00001472,-0.
 00001002,-0.00000014,-0.00001144,-0.00000721,-0.00000041,-0.00000532,-
 0.00000434,0.00000134,0.00000564,-0.00000204,0.00000054,0.00000877,0.0
 0000206,0.,0.00000456,0.00000532,-0.00000109,-0.00000265,0.00000524,-0
 .00000003,-0.00000581,0.00000130\\\@


 KEEP CLOSE TO NATURES HEART, YOURSELF;
 AND BREAK CLEAR AWAY, ONCE IN A WHILE, AND
 CLIMB A MOUNTAIN OR SPEND A WEEK IN THE
 WOODS.  WASH YOUR SPIRIT CLEAN...
                                         -- JOHN MUIR
 Job cpu time:      18 days  3 hours 56 minutes  5.7 seconds.
 File lengths (MBytes):  RWF=  17569 Int=      0 D2E=      0 Chk=     99 Scr=      1
 Normal termination of Gaussian 09 at Sun Jan 16 08:44:10 2022.
