 Entering Gaussian System, Link 0=g09
 Input=reag_NHC26_et.gjf
 Output=reag_NHC26_et.log
 Initial command:
 /usr/local/gqt/g09/l1.exe "/usr/local/gqt/lixogaussian/Gau-19492.inp" -scrdir="/usr/local/gqt/lixogaussian/"
 Entering Link 1 = /usr/local/gqt/g09/l1.exe PID=     19494.
  
 Copyright (c) 1988,1990,1992,1993,1995,1998,2003,2009,2013,
            Gaussian, Inc.  All Rights Reserved.
  
 This is part of the Gaussian(R) 09 program.  It is based on
 the Gaussian(R) 03 system (copyright 2003, Gaussian, Inc.),
 the Gaussian(R) 98 system (copyright 1998, Gaussian, Inc.),
 the Gaussian(R) 94 system (copyright 1995, Gaussian, Inc.),
 the Gaussian 92(TM) system (copyright 1992, Gaussian, Inc.),
 the Gaussian 90(TM) system (copyright 1990, Gaussian, Inc.),
 the Gaussian 88(TM) system (copyright 1988, Gaussian, Inc.),
 the Gaussian 86(TM) system (copyright 1986, Carnegie Mellon
 University), and the Gaussian 82(TM) system (copyright 1983,
 Carnegie Mellon University). Gaussian is a federally registered
 trademark of Gaussian, Inc.
  
 This software contains proprietary and confidential information,
 including trade secrets, belonging to Gaussian, Inc.
  
 This software is provided under written license and may be
 used, copied, transmitted, or stored only in accord with that
 written license.
  
 The following legend is applicable only to US Government
 contracts under FAR:
  
                    RESTRICTED RIGHTS LEGEND
  
 Use, reproduction and disclosure by the US Government is
 subject to restrictions as set forth in subparagraphs (a)
 and (c) of the Commercial Computer Software - Restricted
 Rights clause in FAR 52.227-19.
  
 Gaussian, Inc.
 340 Quinnipiac St., Bldg. 40, Wallingford CT 06492
  
  
 ---------------------------------------------------------------
 Warning -- This program may not be used in any manner that
 competes with the business of Gaussian, Inc. or will provide
 assistance to any competitor of Gaussian, Inc.  The licensee
 of this program is prohibited from giving any competitor of
 Gaussian, Inc. access to this program.  By using this program,
 the user acknowledges that Gaussian, Inc. is engaged in the
 business of creating and licensing software in the field of
 computational chemistry and represents and warrants to the
 licensee that it is not a competitor of Gaussian, Inc. and that
 it will not use this program in any manner prohibited above.
 ---------------------------------------------------------------
  

 Cite this work as:
 Gaussian 09, Revision D.01,
 M. J. Frisch, G. W. Trucks, H. B. Schlegel, G. E. Scuseria, 
 M. A. Robb, J. R. Cheeseman, G. Scalmani, V. Barone, B. Mennucci, 
 G. A. Petersson, H. Nakatsuji, M. Caricato, X. Li, H. P. Hratchian, 
 A. F. Izmaylov, J. Bloino, G. Zheng, J. L. Sonnenberg, M. Hada, 
 M. Ehara, K. Toyota, R. Fukuda, J. Hasegawa, M. Ishida, T. Nakajima, 
 Y. Honda, O. Kitao, H. Nakai, T. Vreven, J. A. Montgomery, Jr., 
 J. E. Peralta, F. Ogliaro, M. Bearpark, J. J. Heyd, E. Brothers, 
 K. N. Kudin, V. N. Staroverov, T. Keith, R. Kobayashi, J. Normand, 
 K. Raghavachari, A. Rendell, J. C. Burant, S. S. Iyengar, J. Tomasi, 
 M. Cossi, N. Rega, J. M. Millam, M. Klene, J. E. Knox, J. B. Cross, 
 V. Bakken, C. Adamo, J. Jaramillo, R. Gomperts, R. E. Stratmann, 
 O. Yazyev, A. J. Austin, R. Cammi, C. Pomelli, J. W. Ochterski, 
 R. L. Martin, K. Morokuma, V. G. Zakrzewski, G. A. Voth, 
 P. Salvador, J. J. Dannenberg, S. Dapprich, A. D. Daniels, 
 O. Farkas, J. B. Foresman, J. V. Ortiz, J. Cioslowski, 
 and D. J. Fox, Gaussian, Inc., Wallingford CT, 2013.
 
 ******************************************
 Gaussian 09:  ES64L-G09RevD.01 24-Apr-2013
                26-Nov-2021 
 ******************************************
 %nprocshared=16
 Will use up to   16 processors via shared memory.
 %mem=50GB
 %chk=reag_NHC26_et.chk
 ------------------------------------------------------------
 #p opt freq n12sx/6-311+g(d,p) scrf=(iefpcm,solvent=ethanol)
 ------------------------------------------------------------
 1/14=-1,18=20,19=15,26=3,38=1/1,3;
 2/9=110,12=2,17=6,18=5,40=1/2;
 3/5=4,6=6,7=111,11=2,16=1,25=1,30=1,70=2201,71=1,72=4,74=-69/1,2,3;
 4//1;
 5/5=2,38=5,53=4/2;
 6/7=2,8=2,9=2,10=2,28=1/1;
 7//1,2,3,16;
 1/14=-1,18=20,19=15,26=3/3(2);
 2/9=110/2;
 99//99;
 2/9=110/2;
 3/5=4,6=6,7=111,11=2,16=1,25=1,30=1,70=2205,71=1,72=4,74=-69/1,2,3;
 4/5=5,16=3,69=1/1;
 5/5=2,38=5,53=4/2;
 7//1,2,3,16;
 1/14=-1,18=20,19=15,26=3/3(-5);
 2/9=110/2;
 6/7=2,8=2,9=2,10=2,19=2,28=1/1;
 99/9=1/99;
 Leave Link    1 at Fri Nov 26 20:34:50 2021, MaxMem=  6710886400 cpu:         0.7
 (Enter /usr/local/gqt/g09/l101.exe)
 -----
 TITLE
 -----
 Symbolic Z-matrix:
 Charge =  0 Multiplicity = 1
 1                    -0.37611   0.3208    0.52245 
 8                    -1.34694   0.44768   0.69052 
 6                    -1.55721   0.66336   2.06538 
 1                    -1.1507   -0.16765   2.65162 
 1                    -1.03804   1.56948   2.39665 
 6                    -6.14386   0.77042  -0.5488 
 6                    -3.84375  -0.8129   -1.26472 
 6                    -5.02634   1.34402  -1.40374 
 1                    -6.48255   1.46246   0.21777 
 1                    -7.01598   0.55572  -1.17087 
 6                    -4.39464   0.22405  -2.20794 
 1                    -3.52774  -1.7123   -1.78378 
 1                    -3.0042   -0.41906  -0.6933 
 1                    -5.42273   2.12324  -2.05081 
 1                    -4.26984   1.80868  -0.77037 
 1                    -3.57537   0.58976  -2.82462 
 1                    -5.13126  -0.22269  -2.87744 
 8                    -4.8192   -1.27338  -0.29999 
 8                    -6.50741  -0.95618   1.04573 
 6                    -5.83108  -0.53148   0.13849 
 6                    -3.03571   0.7987    2.34108 
 1                    -3.21477   0.97079   3.40129 
 1                    -3.45544   1.63641   1.78558 
 1                    -3.56591  -0.10598   2.0484 
 7                     3.58749  -0.62259  -0.27102 
 7                     3.63199   0.67184  -0.42841 
 6                     2.42373   1.25547  -0.19122 
 6                     1.51909   0.25095   0.14754 
 7                     2.33286  -0.84326   0.07 
 6                     4.87833   1.31151  -0.79103 
 6                     1.35756  -2.84879  -0.98268 
 6                     1.9284   -2.22704   0.27519 
 6                     0.85886   3.21136   0.04197 
 6                     2.25486   2.73094  -0.31057 
 1                     5.19634   1.97797   0.00531 
 1                     5.6241    0.54204  -0.94385 
 1                     4.74485   1.88079  -1.70562 
 1                     1.05677  -3.87453  -0.78082 
 1                     0.48485  -2.2969   -1.32393 
 1                     2.09636  -2.86102  -1.78116 
 1                     2.80234  -2.77276   0.61919 
 1                     1.19342  -2.21844   1.07325 
 1                     0.79642   4.29204  -0.06584 
 1                     0.11237   2.75973  -0.60698 
 1                     0.60271   2.95523   1.06745 
 1                     2.98534   3.23045   0.33022 
 1                     2.50002   3.04006  -1.32973 
 
 Add virtual bond connecting atoms C28        and H1         Dist= 3.65D+00.
 Add virtual bond connecting atoms H13        and O2         Dist= 4.40D+00.
 NAtoms=     47 NQM=       47 NQMF=       0 NMMI=      0 NMMIF=      0
                NMic=       0 NMicF=      0.
                    Isotopes and Nuclear Properties:
 (Nuclear quadrupole moments (NQMom) in fm**2, nuclear magnetic moments (NMagM)
  in nuclear magnetons)

  Atom         1           2           3           4           5           6           7           8           9          10
 IAtWgt=           1          16          12           1           1          12          12          12           1           1
 AtmWgt=   1.0078250  15.9949146  12.0000000   1.0078250   1.0078250  12.0000000  12.0000000  12.0000000   1.0078250   1.0078250
 NucSpn=           1           0           0           1           1           0           0           0           1           1
 AtZEff=   0.0000000   0.0000000   0.0000000   0.0000000   0.0000000   0.0000000   0.0000000   0.0000000   0.0000000   0.0000000
 NQMom=    0.0000000   0.0000000   0.0000000   0.0000000   0.0000000   0.0000000   0.0000000   0.0000000   0.0000000   0.0000000
 NMagM=    2.7928460   0.0000000   0.0000000   2.7928460   2.7928460   0.0000000   0.0000000   0.0000000   2.7928460   2.7928460
 AtZNuc=   1.0000000   8.0000000   6.0000000   1.0000000   1.0000000   6.0000000   6.0000000   6.0000000   1.0000000   1.0000000

  Atom        11          12          13          14          15          16          17          18          19          20
 IAtWgt=          12           1           1           1           1           1           1          16          16          12
 AtmWgt=  12.0000000   1.0078250   1.0078250   1.0078250   1.0078250   1.0078250   1.0078250  15.9949146  15.9949146  12.0000000
 NucSpn=           0           1           1           1           1           1           1           0           0           0
 AtZEff=   0.0000000   0.0000000   0.0000000   0.0000000   0.0000000   0.0000000   0.0000000   0.0000000   0.0000000   0.0000000
 NQMom=    0.0000000   0.0000000   0.0000000   0.0000000   0.0000000   0.0000000   0.0000000   0.0000000   0.0000000   0.0000000
 NMagM=    0.0000000   2.7928460   2.7928460   2.7928460   2.7928460   2.7928460   2.7928460   0.0000000   0.0000000   0.0000000
 AtZNuc=   6.0000000   1.0000000   1.0000000   1.0000000   1.0000000   1.0000000   1.0000000   8.0000000   8.0000000   6.0000000

  Atom        21          22          23          24          25          26          27          28          29          30
 IAtWgt=          12           1           1           1          14          14          12          12          14          12
 AtmWgt=  12.0000000   1.0078250   1.0078250   1.0078250  14.0030740  14.0030740  12.0000000  12.0000000  14.0030740  12.0000000
 NucSpn=           0           1           1           1           2           2           0           0           2           0
 AtZEff=   0.0000000   0.0000000   0.0000000   0.0000000   0.0000000   0.0000000   0.0000000   0.0000000   0.0000000   0.0000000
 NQMom=    0.0000000   0.0000000   0.0000000   0.0000000   2.0440000   2.0440000   0.0000000   0.0000000   2.0440000   0.0000000
 NMagM=    0.0000000   2.7928460   2.7928460   2.7928460   0.4037610   0.4037610   0.0000000   0.0000000   0.4037610   0.0000000
 AtZNuc=   6.0000000   1.0000000   1.0000000   1.0000000   7.0000000   7.0000000   6.0000000   6.0000000   7.0000000   6.0000000

  Atom        31          32          33          34          35          36          37          38          39          40
 IAtWgt=          12          12          12          12           1           1           1           1           1           1
 AtmWgt=  12.0000000  12.0000000  12.0000000  12.0000000   1.0078250   1.0078250   1.0078250   1.0078250   1.0078250   1.0078250
 NucSpn=           0           0           0           0           1           1           1           1           1           1
 AtZEff=   0.0000000   0.0000000   0.0000000   0.0000000   0.0000000   0.0000000   0.0000000   0.0000000   0.0000000   0.0000000
 NQMom=    0.0000000   0.0000000   0.0000000   0.0000000   0.0000000   0.0000000   0.0000000   0.0000000   0.0000000   0.0000000
 NMagM=    0.0000000   0.0000000   0.0000000   0.0000000   2.7928460   2.7928460   2.7928460   2.7928460   2.7928460   2.7928460
 AtZNuc=   6.0000000   6.0000000   6.0000000   6.0000000   1.0000000   1.0000000   1.0000000   1.0000000   1.0000000   1.0000000

  Atom        41          42          43          44          45          46          47
 IAtWgt=           1           1           1           1           1           1           1
 AtmWgt=   1.0078250   1.0078250   1.0078250   1.0078250   1.0078250   1.0078250   1.0078250
 NucSpn=           1           1           1           1           1           1           1
 AtZEff=   0.0000000   0.0000000   0.0000000   0.0000000   0.0000000   0.0000000   0.0000000
 NQMom=    0.0000000   0.0000000   0.0000000   0.0000000   0.0000000   0.0000000   0.0000000
 NMagM=    2.7928460   2.7928460   2.7928460   2.7928460   2.7928460   2.7928460   2.7928460
 AtZNuc=   1.0000000   1.0000000   1.0000000   1.0000000   1.0000000   1.0000000   1.0000000
 Leave Link  101 at Fri Nov 26 20:34:51 2021, MaxMem=  6710886400 cpu:         7.0
 (Enter /usr/local/gqt/g09/l103.exe)

 GradGradGradGradGradGradGradGradGradGradGradGradGradGradGradGradGradGrad
 Berny optimization.
 Initialization pass.
                           ----------------------------
                           !    Initial Parameters    !
                           ! (Angstroms and Degrees)  !
 --------------------------                            --------------------------
 ! Name  Definition              Value          Derivative Info.                !
 --------------------------------------------------------------------------------
 ! R1    R(1,2)                  0.9934         estimate D2E/DX2                !
 ! R2    R(1,28)                 1.9332         estimate D2E/DX2                !
 ! R3    R(2,3)                  1.4075         estimate D2E/DX2                !
 ! R4    R(2,13)                 2.3265         estimate D2E/DX2                !
 ! R5    R(3,4)                  1.0952         estimate D2E/DX2                !
 ! R6    R(3,5)                  1.0956         estimate D2E/DX2                !
 ! R7    R(3,21)                 1.5101         estimate D2E/DX2                !
 ! R8    R(6,8)                  1.5195         estimate D2E/DX2                !
 ! R9    R(6,9)                  1.0869         estimate D2E/DX2                !
 ! R10   R(6,10)                 1.0925         estimate D2E/DX2                !
 ! R11   R(6,20)                 1.505          estimate D2E/DX2                !
 ! R12   R(7,11)                 1.5061         estimate D2E/DX2                !
 ! R13   R(7,12)                 1.0855         estimate D2E/DX2                !
 ! R14   R(7,13)                 1.0893         estimate D2E/DX2                !
 ! R15   R(7,18)                 1.4472         estimate D2E/DX2                !
 ! R16   R(8,11)                 1.5166         estimate D2E/DX2                !
 ! R17   R(8,14)                 1.0877         estimate D2E/DX2                !
 ! R18   R(8,15)                 1.0906         estimate D2E/DX2                !
 ! R19   R(11,16)                1.0887         estimate D2E/DX2                !
 ! R20   R(11,17)                1.0911         estimate D2E/DX2                !
 ! R21   R(18,20)                1.3291         estimate D2E/DX2                !
 ! R22   R(19,20)                1.2087         estimate D2E/DX2                !
 ! R23   R(21,22)                1.0889         estimate D2E/DX2                !
 ! R24   R(21,23)                1.0893         estimate D2E/DX2                !
 ! R25   R(21,24)                1.0887         estimate D2E/DX2                !
 ! R26   R(25,26)                1.3047         estimate D2E/DX2                !
 ! R27   R(25,29)                1.3187         estimate D2E/DX2                !
 ! R28   R(26,27)                1.3626         estimate D2E/DX2                !
 ! R29   R(26,30)                1.4471         estimate D2E/DX2                !
 ! R30   R(27,28)                1.3936         estimate D2E/DX2                !
 ! R31   R(27,34)                1.4899         estimate D2E/DX2                !
 ! R32   R(28,29)                1.3658         estimate D2E/DX2                !
 ! R33   R(29,32)                1.4562         estimate D2E/DX2                !
 ! R34   R(30,35)                1.086          estimate D2E/DX2                !
 ! R35   R(30,36)                1.0824         estimate D2E/DX2                !
 ! R36   R(30,37)                1.0855         estimate D2E/DX2                !
 ! R37   R(31,32)                1.5148         estimate D2E/DX2                !
 ! R38   R(31,38)                1.0878         estimate D2E/DX2                !
 ! R39   R(31,39)                1.0875         estimate D2E/DX2                !
 ! R40   R(31,40)                1.0879         estimate D2E/DX2                !
 ! R41   R(32,41)                1.0862         estimate D2E/DX2                !
 ! R42   R(32,42)                1.085          estimate D2E/DX2                !
 ! R43   R(33,34)                1.5179         estimate D2E/DX2                !
 ! R44   R(33,43)                1.0878         estimate D2E/DX2                !
 ! R45   R(33,44)                1.0874         estimate D2E/DX2                !
 ! R46   R(33,45)                1.0876         estimate D2E/DX2                !
 ! R47   R(34,46)                1.0926         estimate D2E/DX2                !
 ! R48   R(34,47)                1.0929         estimate D2E/DX2                !
 ! A1    A(1,2,3)              109.3192         estimate D2E/DX2                !
 ! A2    A(1,2,13)             123.2253         estimate D2E/DX2                !
 ! A3    A(3,2,13)             122.12           estimate D2E/DX2                !
 ! A4    A(2,3,4)              110.5572         estimate D2E/DX2                !
 ! A5    A(2,3,5)              110.5673         estimate D2E/DX2                !
 ! A6    A(2,3,21)             109.7759         estimate D2E/DX2                !
 ! A7    A(4,3,5)              106.8467         estimate D2E/DX2                !
 ! A8    A(4,3,21)             109.4928         estimate D2E/DX2                !
 ! A9    A(5,3,21)             109.5506         estimate D2E/DX2                !
 ! A10   A(8,6,9)              112.6849         estimate D2E/DX2                !
 ! A11   A(8,6,10)             109.9318         estimate D2E/DX2                !
 ! A12   A(8,6,20)             115.5084         estimate D2E/DX2                !
 ! A13   A(9,6,10)             106.1388         estimate D2E/DX2                !
 ! A14   A(9,6,20)             107.066          estimate D2E/DX2                !
 ! A15   A(10,6,20)            104.8276         estimate D2E/DX2                !
 ! A16   A(11,7,12)            112.1782         estimate D2E/DX2                !
 ! A17   A(11,7,13)            111.1929         estimate D2E/DX2                !
 ! A18   A(11,7,18)            112.9556         estimate D2E/DX2                !
 ! A19   A(12,7,13)            109.0298         estimate D2E/DX2                !
 ! A20   A(12,7,18)            104.5587         estimate D2E/DX2                !
 ! A21   A(13,7,18)            106.5508         estimate D2E/DX2                !
 ! A22   A(6,8,11)             109.0215         estimate D2E/DX2                !
 ! A23   A(6,8,14)             109.7032         estimate D2E/DX2                !
 ! A24   A(6,8,15)             110.1354         estimate D2E/DX2                !
 ! A25   A(11,8,14)            111.4316         estimate D2E/DX2                !
 ! A26   A(11,8,15)            109.491          estimate D2E/DX2                !
 ! A27   A(14,8,15)            107.0418         estimate D2E/DX2                !
 ! A28   A(7,11,8)             109.19           estimate D2E/DX2                !
 ! A29   A(7,11,16)            108.1054         estimate D2E/DX2                !
 ! A30   A(7,11,17)            110.446          estimate D2E/DX2                !
 ! A31   A(8,11,16)            111.4537         estimate D2E/DX2                !
 ! A32   A(8,11,17)            110.2755         estimate D2E/DX2                !
 ! A33   A(16,11,17)           107.3384         estimate D2E/DX2                !
 ! A34   A(7,18,20)            123.7432         estimate D2E/DX2                !
 ! A35   A(6,20,18)            119.3678         estimate D2E/DX2                !
 ! A36   A(6,20,19)            122.035          estimate D2E/DX2                !
 ! A37   A(18,20,19)           118.5218         estimate D2E/DX2                !
 ! A38   A(3,21,22)            110.6665         estimate D2E/DX2                !
 ! A39   A(3,21,23)            110.6772         estimate D2E/DX2                !
 ! A40   A(3,21,24)            110.6881         estimate D2E/DX2                !
 ! A41   A(22,21,23)           108.1573         estimate D2E/DX2                !
 ! A42   A(22,21,24)           108.2394         estimate D2E/DX2                !
 ! A43   A(23,21,24)           108.3192         estimate D2E/DX2                !
 ! A44   A(26,25,29)           103.2766         estimate D2E/DX2                !
 ! A45   A(25,26,27)           111.9435         estimate D2E/DX2                !
 ! A46   A(25,26,30)           119.8778         estimate D2E/DX2                !
 ! A47   A(27,26,30)           128.1701         estimate D2E/DX2                !
 ! A48   A(26,27,28)           108.0098         estimate D2E/DX2                !
 ! A49   A(26,27,34)           120.7121         estimate D2E/DX2                !
 ! A50   A(28,27,34)           131.2779         estimate D2E/DX2                !
 ! A51   A(1,28,27)            131.1072         estimate D2E/DX2                !
 ! A52   A(1,28,29)            128.6125         estimate D2E/DX2                !
 ! A53   A(27,28,29)           100.1888         estimate D2E/DX2                !
 ! A54   A(25,29,28)           116.5809         estimate D2E/DX2                !
 ! A55   A(25,29,32)           117.3672         estimate D2E/DX2                !
 ! A56   A(28,29,32)           126.0008         estimate D2E/DX2                !
 ! A57   A(26,30,35)           109.8593         estimate D2E/DX2                !
 ! A58   A(26,30,36)           108.3338         estimate D2E/DX2                !
 ! A59   A(26,30,37)           109.6963         estimate D2E/DX2                !
 ! A60   A(35,30,36)           109.7567         estimate D2E/DX2                !
 ! A61   A(35,30,37)           109.3887         estimate D2E/DX2                !
 ! A62   A(36,30,37)           109.7909         estimate D2E/DX2                !
 ! A63   A(32,31,38)           109.7023         estimate D2E/DX2                !
 ! A64   A(32,31,39)           110.7736         estimate D2E/DX2                !
 ! A65   A(32,31,40)           110.9881         estimate D2E/DX2                !
 ! A66   A(38,31,39)           108.3515         estimate D2E/DX2                !
 ! A67   A(38,31,40)           108.263          estimate D2E/DX2                !
 ! A68   A(39,31,40)           108.6849         estimate D2E/DX2                !
 ! A69   A(29,32,31)           112.1908         estimate D2E/DX2                !
 ! A70   A(29,32,41)           107.3714         estimate D2E/DX2                !
 ! A71   A(29,32,42)           106.5148         estimate D2E/DX2                !
 ! A72   A(31,32,41)           111.097          estimate D2E/DX2                !
 ! A73   A(31,32,42)           111.0251         estimate D2E/DX2                !
 ! A74   A(41,32,42)           108.4247         estimate D2E/DX2                !
 ! A75   A(34,33,43)           110.1335         estimate D2E/DX2                !
 ! A76   A(34,33,44)           111.1816         estimate D2E/DX2                !
 ! A77   A(34,33,45)           111.1665         estimate D2E/DX2                !
 ! A78   A(43,33,44)           108.3035         estimate D2E/DX2                !
 ! A79   A(43,33,45)           108.2934         estimate D2E/DX2                !
 ! A80   A(44,33,45)           107.6512         estimate D2E/DX2                !
 ! A81   A(27,34,33)           113.5213         estimate D2E/DX2                !
 ! A82   A(27,34,46)           109.2688         estimate D2E/DX2                !
 ! A83   A(27,34,47)           109.2321         estimate D2E/DX2                !
 ! A84   A(33,34,46)           109.5108         estimate D2E/DX2                !
 ! A85   A(33,34,47)           109.4744         estimate D2E/DX2                !
 ! A86   A(46,34,47)           105.5237         estimate D2E/DX2                !
 ! A87   L(2,1,28,33,-1)       174.6384         estimate D2E/DX2                !
 ! A88   L(2,13,7,9,-1)        175.6776         estimate D2E/DX2                !
 ! A89   L(2,1,28,33,-2)       180.9811         estimate D2E/DX2                !
 ! A90   L(2,13,7,9,-2)        183.2122         estimate D2E/DX2                !
 ! D1    D(1,2,7,11)           -99.5938         estimate D2E/DX2                !
 ! D2    D(1,2,7,12)            26.9466         estimate D2E/DX2                !
 ! D3    D(1,2,7,18)           138.6817         estimate D2E/DX2                !
 ! D4    D(3,2,7,11)           109.188          estimate D2E/DX2                !
 ! D5    D(3,2,7,12)          -124.2716         estimate D2E/DX2                !
 ! D6    D(3,2,7,18)           -12.5365         estimate D2E/DX2                !
 ! D7    D(3,2,28,27)          -90.7788         estimate D2E/DX2                !
 ! D8    D(3,2,28,29)           93.8351         estimate D2E/DX2                !
 ! D9    D(13,2,28,27)         111.0763         estimate D2E/DX2                !
 ! D10   D(13,2,28,29)         -64.3099         estimate D2E/DX2                !
 ! D11   D(1,2,3,4)            -56.6894         estimate D2E/DX2                !
 ! D12   D(1,2,3,5)             61.4301         estimate D2E/DX2                !
 ! D13   D(1,2,3,21)          -177.5903         estimate D2E/DX2                !
 ! D14   D(13,2,3,4)            98.221          estimate D2E/DX2                !
 ! D15   D(13,2,3,5)          -143.6595         estimate D2E/DX2                !
 ! D16   D(13,2,3,21)          -22.6799         estimate D2E/DX2                !
 ! D17   D(2,3,21,22)         -179.74           estimate D2E/DX2                !
 ! D18   D(2,3,21,23)          -59.849          estimate D2E/DX2                !
 ! D19   D(2,3,21,24)           60.259          estimate D2E/DX2                !
 ! D20   D(4,3,21,22)           58.719          estimate D2E/DX2                !
 ! D21   D(4,3,21,23)          178.61           estimate D2E/DX2                !
 ! D22   D(4,3,21,24)          -61.282          estimate D2E/DX2                !
 ! D23   D(5,3,21,22)          -58.1494         estimate D2E/DX2                !
 ! D24   D(5,3,21,23)           61.7416         estimate D2E/DX2                !
 ! D25   D(5,3,21,24)         -178.1504         estimate D2E/DX2                !
 ! D26   D(9,6,8,11)           166.5411         estimate D2E/DX2                !
 ! D27   D(9,6,8,14)           -71.1835         estimate D2E/DX2                !
 ! D28   D(9,6,8,15)            46.3884         estimate D2E/DX2                !
 ! D29   D(10,6,8,11)          -75.2918         estimate D2E/DX2                !
 ! D30   D(10,6,8,14)           46.9836         estimate D2E/DX2                !
 ! D31   D(10,6,8,15)          164.5555         estimate D2E/DX2                !
 ! D32   D(20,6,8,11)           43.0445         estimate D2E/DX2                !
 ! D33   D(20,6,8,14)          165.3199         estimate D2E/DX2                !
 ! D34   D(20,6,8,15)          -77.1082         estimate D2E/DX2                !
 ! D35   D(8,6,20,18)          -18.4715         estimate D2E/DX2                !
 ! D36   D(8,6,20,19)          164.7348         estimate D2E/DX2                !
 ! D37   D(9,6,20,18)         -144.8761         estimate D2E/DX2                !
 ! D38   D(9,6,20,19)           38.3302         estimate D2E/DX2                !
 ! D39   D(10,6,20,18)         102.6629         estimate D2E/DX2                !
 ! D40   D(10,6,20,19)         -74.1308         estimate D2E/DX2                !
 ! D41   D(12,7,11,8)          170.5304         estimate D2E/DX2                !
 ! D42   D(12,7,11,16)         -68.0544         estimate D2E/DX2                !
 ! D43   D(12,7,11,17)          49.1078         estimate D2E/DX2                !
 ! D44   D(13,7,11,8)          -67.0775         estimate D2E/DX2                !
 ! D45   D(13,7,11,16)          54.3377         estimate D2E/DX2                !
 ! D46   D(13,7,11,17)         171.5            estimate D2E/DX2                !
 ! D47   D(18,7,11,8)           52.6604         estimate D2E/DX2                !
 ! D48   D(18,7,11,16)         174.0756         estimate D2E/DX2                !
 ! D49   D(18,7,11,17)         -68.7621         estimate D2E/DX2                !
 ! D50   D(11,7,18,20)         -28.5133         estimate D2E/DX2                !
 ! D51   D(12,7,18,20)        -150.7595         estimate D2E/DX2                !
 ! D52   D(13,7,18,20)          93.8606         estimate D2E/DX2                !
 ! D53   D(6,8,11,7)           -59.7058         estimate D2E/DX2                !
 ! D54   D(6,8,11,16)         -179.0673         estimate D2E/DX2                !
 ! D55   D(6,8,11,17)           61.8201         estimate D2E/DX2                !
 ! D56   D(14,8,11,7)          179.0668         estimate D2E/DX2                !
 ! D57   D(14,8,11,16)          59.7053         estimate D2E/DX2                !
 ! D58   D(14,8,11,17)         -59.4073         estimate D2E/DX2                !
 ! D59   D(15,8,11,7)           60.8434         estimate D2E/DX2                !
 ! D60   D(15,8,11,16)         -58.5181         estimate D2E/DX2                !
 ! D61   D(15,8,11,17)        -177.6307         estimate D2E/DX2                !
 ! D62   D(7,18,20,6)           10.7302         estimate D2E/DX2                !
 ! D63   D(7,18,20,19)        -172.3632         estimate D2E/DX2                !
 ! D64   D(29,25,26,27)         -0.0576         estimate D2E/DX2                !
 ! D65   D(29,25,26,30)        178.9601         estimate D2E/DX2                !
 ! D66   D(26,25,29,28)          0.1774         estimate D2E/DX2                !
 ! D67   D(26,25,29,32)        177.7368         estimate D2E/DX2                !
 ! D68   D(25,26,27,28)         -0.0697         estimate D2E/DX2                !
 ! D69   D(25,26,27,34)        179.786          estimate D2E/DX2                !
 ! D70   D(30,26,27,28)       -178.9863         estimate D2E/DX2                !
 ! D71   D(30,26,27,34)          0.8694         estimate D2E/DX2                !
 ! D72   D(25,26,30,35)       -116.2841         estimate D2E/DX2                !
 ! D73   D(25,26,30,36)          3.604          estimate D2E/DX2                !
 ! D74   D(25,26,30,37)        123.4377         estimate D2E/DX2                !
 ! D75   D(27,26,30,35)         62.557          estimate D2E/DX2                !
 ! D76   D(27,26,30,36)       -177.5549         estimate D2E/DX2                !
 ! D77   D(27,26,30,37)        -57.7212         estimate D2E/DX2                !
 ! D78   D(26,27,28,1)        -176.5204         estimate D2E/DX2                !
 ! D79   D(26,27,28,29)          0.1571         estimate D2E/DX2                !
 ! D80   D(34,27,28,1)           3.6447         estimate D2E/DX2                !
 ! D81   D(34,27,28,29)       -179.6777         estimate D2E/DX2                !
 ! D82   D(26,27,34,33)       -177.724          estimate D2E/DX2                !
 ! D83   D(26,27,34,46)        -55.1748         estimate D2E/DX2                !
 ! D84   D(26,27,34,47)         59.801          estimate D2E/DX2                !
 ! D85   D(28,27,34,33)          2.0933         estimate D2E/DX2                !
 ! D86   D(28,27,34,46)        124.6425         estimate D2E/DX2                !
 ! D87   D(28,27,34,47)       -120.3816         estimate D2E/DX2                !
 ! D88   D(1,28,29,25)         176.5835         estimate D2E/DX2                !
 ! D89   D(1,28,29,32)          -0.7372         estimate D2E/DX2                !
 ! D90   D(27,28,29,25)         -0.2128         estimate D2E/DX2                !
 ! D91   D(27,28,29,32)       -177.5335         estimate D2E/DX2                !
 ! D92   D(25,29,32,31)        -92.7073         estimate D2E/DX2                !
 ! D93   D(25,29,32,41)         29.6315         estimate D2E/DX2                !
 ! D94   D(25,29,32,42)        145.6184         estimate D2E/DX2                !
 ! D95   D(28,29,32,31)         84.5946         estimate D2E/DX2                !
 ! D96   D(28,29,32,41)       -153.0666         estimate D2E/DX2                !
 ! D97   D(28,29,32,42)        -37.0798         estimate D2E/DX2                !
 ! D98   D(38,31,32,29)       -179.2155         estimate D2E/DX2                !
 ! D99   D(38,31,32,41)         60.5868         estimate D2E/DX2                !
 ! D100  D(38,31,32,42)        -60.1582         estimate D2E/DX2                !
 ! D101  D(39,31,32,29)        -59.6436         estimate D2E/DX2                !
 ! D102  D(39,31,32,41)       -179.8413         estimate D2E/DX2                !
 ! D103  D(39,31,32,42)         59.4137         estimate D2E/DX2                !
 ! D104  D(40,31,32,29)         61.1876         estimate D2E/DX2                !
 ! D105  D(40,31,32,41)        -59.0101         estimate D2E/DX2                !
 ! D106  D(40,31,32,42)       -179.7551         estimate D2E/DX2                !
 ! D107  D(43,33,34,27)       -179.8649         estimate D2E/DX2                !
 ! D108  D(43,33,34,46)         57.7197         estimate D2E/DX2                !
 ! D109  D(43,33,34,47)        -57.524          estimate D2E/DX2                !
 ! D110  D(44,33,34,27)        -59.8126         estimate D2E/DX2                !
 ! D111  D(44,33,34,46)        177.7719         estimate D2E/DX2                !
 ! D112  D(44,33,34,47)         62.5283         estimate D2E/DX2                !
 ! D113  D(45,33,34,27)         60.1054         estimate D2E/DX2                !
 ! D114  D(45,33,34,46)        -62.3101         estimate D2E/DX2                !
 ! D115  D(45,33,34,47)       -177.5537         estimate D2E/DX2                !
 --------------------------------------------------------------------------------
 Trust Radius=3.00D-01 FncErr=1.00D-07 GrdErr=1.00D-06
 Number of steps in this run=    263 maximum allowed number of steps=    282.
 GradGradGradGradGradGradGradGradGradGradGradGradGradGradGradGradGradGrad

 Leave Link  103 at Fri Nov 26 20:34:51 2021, MaxMem=  6710886400 cpu:         0.2
 (Enter /usr/local/gqt/g09/l202.exe)
                          Input orientation:                          
 ---------------------------------------------------------------------
 Center     Atomic      Atomic             Coordinates (Angstroms)
 Number     Number       Type             X           Y           Z
 ---------------------------------------------------------------------
      1          1           0       -0.376111    0.320802    0.522453
      2          8           0       -1.346941    0.447681    0.690519
      3          6           0       -1.557205    0.663364    2.065384
      4          1           0       -1.150697   -0.167650    2.651618
      5          1           0       -1.038038    1.569481    2.396654
      6          6           0       -6.143861    0.770418   -0.548801
      7          6           0       -3.843749   -0.812902   -1.264716
      8          6           0       -5.026342    1.344017   -1.403744
      9          1           0       -6.482547    1.462464    0.217769
     10          1           0       -7.015978    0.555717   -1.170870
     11          6           0       -4.394637    0.224052   -2.207936
     12          1           0       -3.527735   -1.712300   -1.783781
     13          1           0       -3.004195   -0.419060   -0.693297
     14          1           0       -5.422732    2.123236   -2.050814
     15          1           0       -4.269835    1.808679   -0.770373
     16          1           0       -3.575365    0.589758   -2.824624
     17          1           0       -5.131257   -0.222687   -2.877440
     18          8           0       -4.819203   -1.273381   -0.299988
     19          8           0       -6.507409   -0.956184    1.045729
     20          6           0       -5.831081   -0.531482    0.138487
     21          6           0       -3.035708    0.798700    2.341075
     22          1           0       -3.214773    0.970789    3.401288
     23          1           0       -3.455444    1.636405    1.785576
     24          1           0       -3.565914   -0.105984    2.048401
     25          7           0        3.587489   -0.622590   -0.271020
     26          7           0        3.631985    0.671843   -0.428408
     27          6           0        2.423734    1.255467   -0.191218
     28          6           0        1.519085    0.250948    0.147538
     29          7           0        2.332855   -0.843259    0.070001
     30          6           0        4.878335    1.311508   -0.791035
     31          6           0        1.357564   -2.848793   -0.982681
     32          6           0        1.928397   -2.227043    0.275190
     33          6           0        0.858864    3.211358    0.041973
     34          6           0        2.254860    2.730938   -0.310566
     35          1           0        5.196339    1.977968    0.005306
     36          1           0        5.624098    0.542039   -0.943850
     37          1           0        4.744846    1.880792   -1.705623
     38          1           0        1.056768   -3.874527   -0.780823
     39          1           0        0.484848   -2.296905   -1.323926
     40          1           0        2.096355   -2.861016   -1.781165
     41          1           0        2.802345   -2.772765    0.619188
     42          1           0        1.193424   -2.218444    1.073253
     43          1           0        0.796415    4.292043   -0.065840
     44          1           0        0.112371    2.759731   -0.606976
     45          1           0        0.602708    2.955228    1.067446
     46          1           0        2.985339    3.230449    0.330216
     47          1           0        2.500019    3.040063   -1.329732
 ---------------------------------------------------------------------
                    Distance matrix (angstroms):
                    1          2          3          4          5
     1  H    0.000000
     2  O    0.993406   0.000000
     3  C    1.973061   1.407474   0.000000
     4  H    2.317739   2.064716   1.095218   0.000000
     5  H    2.347334   2.065128   1.095592   1.759353   0.000000
     6  C    5.883594   4.964928   5.280420   6.004527   5.948415
     7  C    4.062483   3.412633   4.300838   4.796514   5.191666
     8  C    5.136327   4.327511   4.953085   5.809623   5.513658
     9  H    6.219709   5.256208   5.320830   6.083545   5.865294
    10  H    6.856410   5.967782   6.346899   7.038195   7.034964
    11  C    4.859314   4.211829   5.148328   5.855924   5.854843
    12  H    4.402835   3.942530   4.933846   5.263936   5.868962
    13  H    2.988690   2.326516   3.297839   3.832378   4.167477
    14  H    5.944649   5.189842   5.832376   6.753614   6.269941
    15  H    4.364203   3.539750   4.087986   5.034374   4.531202
    16  H    4.637940   4.164407   5.290611   6.036713   5.887243
    17  H    5.870781   5.244118   6.163639   6.813103   6.912480
    18  O    4.791544   3.999970   4.470637   4.836585   5.445269
    19  O    6.284690   5.359799   5.307273   5.647568   6.173978
    20  C    5.534484   4.622879   4.838037   5.324866   5.699704
    21  C    3.257181   2.387359   1.510064   2.140919   2.141933
    22  H    4.094896   3.333273   2.150972   2.473552   2.471011
    23  H    3.578908   2.656690   2.151375   3.052295   2.494343
    24  H    3.561672   2.659742   2.151069   2.490170   3.052642
    25  N    4.150869   5.139906   5.794854   5.585623   5.772102
    26  N    4.134271   5.108028   5.757323   5.750248   5.531351
    27  C    3.036784   3.955751   4.614186   4.783674   4.333538
    28  C    1.933187   2.923635   3.648532   3.684207   3.651840
    29  N    2.982993   3.948730   4.624287   4.388203   4.753688
    30  C    5.505992   6.457186   7.070742   7.098520   6.725427
    31  C    3.913744   4.580468   5.488336   5.166046   6.056398
    32  C    3.444330   4.249057   4.869155   4.401060   5.264403
    33  C    3.179833   3.595010   4.052636   4.718716   3.440715
    34  C    3.663971   4.380457   4.944880   5.364155   4.418280
    35  H    5.836595   6.754688   7.182093   7.203576   6.689758
    36  H    6.180736   7.160688   7.787254   7.702525   7.523208
    37  H    5.798456   6.701132   7.444358   7.611773   7.096995
    38  H    4.620872   5.159860   5.960387   5.513211   6.642424
    39  H    3.317040   3.866030   4.941720   4.797258   5.577709
    40  H    4.641520   5.377080   6.369120   6.119406   6.848934
    41  H    4.436451   5.252897   5.736213   5.152081   6.063252
    42  H    3.035554   3.702453   4.105496   3.491689   4.591208
    43  H    4.182303   4.466002   4.821717   5.573570   4.103832
    44  H    2.731775   3.026327   3.784672   4.558874   3.429566
    45  H    2.862744   3.198593   3.303595   3.916171   2.525695
    46  H    4.449983   5.161615   5.498676   5.834619   4.818355
    47  H    4.370022   5.059739   5.799705   6.282380   5.344756
                    6          7          8          9         10
     6  C    0.000000
     7  C    2.882699   0.000000
     8  C    1.519471   2.463768   0.000000
     9  H    1.086860   3.786596   2.182628   0.000000
    10  H    1.092545   3.456148   2.152742   1.742142   0.000000
    11  C    2.472050   1.506126   1.516607   3.431775   2.838474
    12  H    3.812241   1.085454   3.425102   4.776635   4.205639
    13  H    3.360542   1.089258   2.775293   4.058215   4.156040
    14  H    2.146203   3.425207   1.087661   2.589652   2.402051
    15  H    2.153846   2.701594   1.090584   2.447935   3.044932
    16  H    3.436449   2.114899   2.166366   4.297613   3.817575
    17  H    2.726570   2.146371   2.153450   3.774392   2.659035
    18  O    2.448212   1.447153   2.848150   3.243398   2.988286
    19  O    2.378203   3.528990   3.672111   2.556559   2.730897
    20  C    1.505038   2.449013   2.558042   2.099170   2.073740
    21  C    4.244149   4.031367   4.275940   4.102403   5.313694
    22  H    4.921677   5.034755   5.148729   4.588560   5.960375
    23  H    3.664265   3.931179   3.567208   3.413448   4.752459
    24  H    3.762891   3.399069   4.019037   3.783912   4.764923
    25  N    9.834470   7.499796   8.907788  10.295241  10.706617
    26  N    9.777084   7.667495   8.738977  10.165942  10.674449
    27  C    8.588761   6.686695   7.548622   8.918069   9.516172
    28  C    7.712035   5.646789   6.814976   8.093134   8.641666
    29  N    8.651103   6.319243   7.817537   9.113150   9.534022
    30  C   11.038127   8.989563   9.923663  11.406582  11.924352
    31  C    8.340163   5.592678   7.649262   9.027478   9.041145
    32  C    8.650149   6.139118   7.996229   9.184755   9.478221
    33  C    7.439446   6.325873   6.341349   7.548898   8.398604
    34  C    8.627799   7.117741   7.492296   8.844798   9.561389
    35  H   11.417765   9.545947  10.338788  11.692189  12.350987
    36  H   11.776803   9.569689  10.690488  12.197024  12.642122
    37  H   11.006139   9.011900   9.790575  11.398631  11.847310
    38  H    8.571955   5.798515   8.038997   9.290960   9.216747
    39  H    7.345003   4.576300   6.605747   8.065623   8.026410
    40  H    9.088850   6.304469   8.279949   9.812532   9.750956
    41  H    9.692932   7.180579   9.073504  10.213105  10.520578
    42  H    8.087033   5.728417   7.583675   8.555785   8.951331
    43  H    7.797598   7.002064   6.662233   7.814745   8.730104
    44  H    6.565149   5.370960   5.389383   6.771709   7.482580
    45  H    7.273365   6.277640   6.355233   7.290482   8.295305
    46  H    9.495616   8.094995   8.411437   9.632200  10.461061
    47  H    8.970942   7.422463   7.715449   9.250409   9.836229
                   11         12         13         14         15
    11  C    0.000000
    12  H    2.163535   0.000000
    13  H    2.154310   1.770796   0.000000
    14  H    2.165310   4.286450   3.762372   0.000000
    15  H    2.143177   3.738315   2.563319   1.751470   0.000000
    16  H    1.088693   2.526874   2.426212   2.522519   2.487570
    17  H    1.091064   2.446696   3.055067   2.504321   3.050939
    18  O    2.462281   2.015485   2.044214   3.868675   3.165780
    19  O    4.055009   4.178073   3.947812   4.499770   3.993674
    20  C    2.853052   3.224104   2.948862   3.465157   2.956327
    21  C    4.782302   4.854034   3.269762   5.171167   3.496317
    22  H    5.780406   5.846525   4.329163   5.994050   4.383831
    23  H    4.338774   4.894830   3.251672   4.338792   2.688082
    24  H    4.348806   4.155397   2.816106   5.022027   3.479501
    25  N    8.257286   7.355428   6.608331   9.585995   8.240022
    26  N    8.233705   7.666992   6.730462   9.312714   7.990500
    27  C    7.184786   6.838412   5.702502   8.110373   6.741315
    28  C    6.365618   5.749324   4.649299   7.518447   6.064708
    29  N    7.182430   6.207919   5.408019   8.570127   7.164811
    30  C    9.443420   8.988380   8.070854  10.409511   9.161693
    31  C    6.635619   5.079323   5.001229   8.475517   7.307855
    32  C    7.221810   5.854374   5.342025   8.852927   7.469828
    33  C    6.448671   6.842371   5.351989   6.709860   5.378752
    34  C    7.355291   7.439834   6.142201   7.895770   6.605576
    35  H    9.998074   9.639937   8.572197  10.817274   9.499410
    36  H   10.103172   9.462747   8.685271  11.214188   9.976191
    37  H    9.302002   9.019535   8.146273  10.176324   9.063353
    38  H    6.967986   5.167090   5.332855   8.920200   7.789201
    39  H    5.562919   4.080937   4.012158   7.413873   6.306286
    40  H    7.199497   5.740204   5.758664   9.025084   7.959656
    41  H    8.292773   6.853375   6.401441   9.937385   8.540271
    42  H    6.925201   5.541495   4.896783   8.507849   7.033056
    43  H    6.934274   7.596166   6.085461   6.879073   5.685979
    44  H    5.413489   5.885091   4.452543   5.755619   4.487196
    45  H    6.569696   6.853894   5.243642   6.835326   5.332338
    46  H    8.363294   8.445110   7.088090   8.808569   7.474642
    47  H    7.499162   7.689273   6.531994   8.008153   6.903630
                   16         17         18         19         20
    16  H    0.000000
    17  H    1.756034   0.000000
    18  O    3.375234   2.800820   0.000000
    19  O    5.095729   4.221737   2.182111   0.000000
    20  C    3.889147   3.111418   1.329124   1.208668   0.000000
    21  C    5.198012   5.715545   3.801261   4.100030   3.799327
    22  H    6.247975   6.672310   4.616269   4.483674   4.443845
    23  H    4.729037   5.292286   3.830962   4.072270   3.613348
    24  H    4.922450   5.169896   2.906627   3.221891   2.993293
    25  N    7.700465   9.108780   8.431894  10.185876   9.427908
    26  N    7.595689   9.142885   8.673118  10.374530   9.556097
    27  C    6.585376   8.153442   7.672486   9.283682   8.452447
    28  C    5.907789   7.321330   6.534352   8.166304   7.391700
    29  N    6.733458   8.048943   7.174527   8.894665   8.170174
    30  C    8.724761  10.339186  10.048135  11.753778  10.906521
    31  C    6.288893   7.251989   6.410963   8.339917   7.635677
    32  C    6.916257   7.987192   6.838889   8.565724   7.943746
    33  C    5.895129   7.496478   7.243636   8.522788   7.666390
    34  C    6.700498   8.358676   8.128779   9.602696   8.730835
    35  H    9.320860  10.945883  10.534494  12.110717  11.310132
    36  H    9.389873  10.954508  10.619456  12.384529  11.556168
    37  H    8.493812  10.165391  10.168365  11.926089  11.003183
    38  H    6.750083   7.484878   6.443928   8.310824   7.711261
    39  H    5.202907   6.185177   5.498091   7.503629   6.719102
    40  H    6.720495   7.771806   7.248408   9.254430   8.482690
    41  H    7.990093   9.037220   7.821830   9.494915   8.932551
    42  H    6.769106   7.719625   6.239440   7.803645   7.284456
    43  H    6.358480   7.963993   7.909737   9.062302   8.199503
    44  H    4.819351   6.445576   6.378138   7.769230   6.834648
    45  H    6.180611   7.651119   7.010572   8.115009   7.376567
    46  H    7.743972   9.385752   9.032858  10.399621   9.587395
    47  H    6.719299   8.442589   8.557872  10.136398   9.182528
                   21         22         23         24         25
    21  C    0.000000
    22  H    1.088913   0.000000
    23  H    1.089269   1.763942   0.000000
    24  H    1.088683   1.764382   1.765559   0.000000
    25  N    7.260154   7.892748   7.676949   7.537756   0.000000
    26  N    7.221098   7.850735   7.487574   7.651755   1.304724
    27  C    6.035449   6.691779   6.214303   6.537991   2.210835
    28  C    5.085054   5.789169   5.417435   5.440395   2.283977
    29  N    6.056011   6.720448   6.526587   6.265231   1.318748
    30  C    8.526732   9.120858   8.729052   9.020921   2.382736
    31  C    6.606996   7.396936   7.137597   6.399304   3.230327
    32  C    6.169711   6.815483   6.796561   6.150660   2.371751
    33  C    5.125864   5.735823   4.912625   5.882956   4.716196
    34  C    6.225340   6.840531   6.180565   6.891608   3.608824
    35  H    8.637887   9.126550   8.839648   9.235485   3.070449
    36  H    9.265465   9.858483   9.543871   9.686579   2.440663
    37  H    8.836498   9.500746   8.915882   9.333204   3.108775
    38  H    6.952242   7.695012   7.570789   6.601183   4.152053
    39  H    5.950573   6.833203   6.376977   5.708012   3.679446
    40  H    7.531564   8.351564   7.985669   7.370011   3.084570
    41  H    7.057132   7.613145   7.743459   7.050467   2.456049
    42  H    5.347531   5.918036   6.081056   5.297612   3.175747
    43  H    5.716804   6.256303   5.344012   6.545424   5.655599
    44  H    4.737831   5.507847   4.440210   5.365922   4.861009
    45  H    4.417104   4.894688   4.327077   5.264095   4.847802
    46  H    6.797791   7.278663   6.792844   7.550024   3.945881
    47  H    7.010193   7.702162   6.866072   7.622659   3.964654
                   26         27         28         29         30
    26  N    0.000000
    27  C    1.362625   0.000000
    28  C    2.230070   1.393629   0.000000
    29  N    2.057105   2.116871   1.365841   0.000000
    30  C    1.447086   2.527446   3.645581   3.444397   0.000000
    31  C    4.227894   4.313709   3.303313   2.466070   5.453500
    32  C    3.435230   3.548348   2.514810   1.456211   4.728670
    33  C    3.789537   2.515691   3.034973   4.314319   4.523214
    34  C    2.479966   1.489891   2.627085   3.595246   3.021299
    35  H    2.083573   2.871928   4.065099   4.020329   1.086027
    36  H    2.061806   3.364188   4.257580   3.712037   1.082404
    37  H    2.081177   2.841129   4.061543   4.048579   1.085530
    38  H    5.236928   5.341635   4.253838   3.397188   6.442006
    39  H    4.418132   4.202577   3.118719   2.733359   5.710284
    40  H    4.082793   4.424990   3.706407   2.748471   5.111724
    41  H    3.694737   4.126349   3.318440   2.060345   4.793720
    42  H    4.068824   3.896230   2.657235   2.048403   5.432743
    43  H    4.612783   3.447417   4.110746   5.361942   5.106032
    44  H    4.096199   2.788918   2.973572   4.286068   4.984540
    45  H    4.077738   2.790978   2.999852   4.291481   4.943354
    46  H    2.745929   2.118454   3.325763   4.133829   2.919412
    47  H    2.775284   2.118211   3.305105   4.131269   2.989060
                   31         32         33         34         35
    31  C    0.000000
    32  C    1.514815   0.000000
    33  C    6.166364   5.547476   0.000000
    34  C    5.691246   5.003125   1.517857   0.000000
    35  H    6.245794   5.332392   4.509577   3.052710   0.000000
    36  H    5.450006   4.776200   5.550185   4.067442   1.773631
    37  H    5.862193   5.360067   4.463781   2.978080   1.772165
    38  H    1.087821   2.142219   7.136240   6.729690   7.211501
    39  H    1.087503   2.155432   5.687401   5.425776   6.499196
    40  H    1.087906   2.158408   6.459794   5.784266   6.018068
    41  H    2.158508   1.086247   6.318229   5.608469   5.355140
    42  H    2.156652   1.084972   5.536986   5.247664   5.896925
    43  H    7.221290   6.625418   1.087844   2.150350   4.971855
    44  H    5.757361   5.379970   1.087361   2.163088   5.180037
    45  H    6.201572   5.407500   1.087573   2.163061   4.815042
    46  H    6.428883   5.559170   2.146006   1.092571   2.561796
    47  H    6.008683   5.535787   2.145764   1.092869   3.190693
                   36         37         38         39         40
    36  H    0.000000
    37  H    1.773597   0.000000
    38  H    6.355559   6.897889   0.000000
    39  H    5.883533   5.978832   1.763787   0.000000
    40  H    4.972610   5.431846   1.763131   1.767553   0.000000
    41  H    4.625289   5.552806   2.494183   3.061524   2.503578
    42  H    5.596413   6.094136   2.489756   2.500941   3.062007
    43  H    6.175755   4.908475   8.201942   6.715214   7.469835
    44  H    5.950696   4.841424   6.703394   5.120774   6.075171
    45  H    5.923103   5.099180   7.089981   5.772127   6.646372
    46  H    3.976662   3.010329   7.445433   6.288107   6.508008
    47  H    4.018569   2.554300   7.084901   5.704750   5.932071
                   41         42         43         44         45
    41  H    0.000000
    42  H    1.761271   0.000000
    43  H    7.375942   6.621298   0.000000
    44  H    6.272794   5.364147   1.763158   0.000000
    45  H    6.152174   5.207289   1.763217   1.755659   0.000000
    46  H    6.012950   5.783900   2.464798   3.058407   2.509220
    47  H    6.138294   5.927345   2.463158   2.510344   3.058341
                   46         47
    46  H    0.000000
    47  H    1.739889   0.000000
 Stoichiometry    C14H27N3O3
 Framework group  C1[X(C14H27N3O3)]
 Deg. of freedom   135
 Full point group                 C1      NOp   1
 Largest Abelian subgroup         C1      NOp   1
 Largest concise Abelian subgroup C1      NOp   1
                         Standard orientation:                         
 ---------------------------------------------------------------------
 Center     Atomic      Atomic             Coordinates (Angstroms)
 Number     Number       Type             X           Y           Z
 ---------------------------------------------------------------------
      1          1           0       -0.540915   -0.145293    0.604466
      2          8           0        0.422413   -0.345384    0.741643
      3          6           0        0.635099   -0.713300    2.083428
      4          1           0        0.285939    0.075351    2.758425
      5          1           0        0.066321   -1.616747    2.329594
      6          6           0        5.176800   -0.819069   -0.608151
      7          6           0        2.967798    0.961377   -1.118319
      8          6           0        4.017148   -1.235283   -1.497400
      9          1           0        5.482108   -1.604934    0.077756
     10          1           0        6.053043   -0.592916   -1.220284
     11          6           0        3.444617   -0.003489   -2.171928
     12          1           0        2.700399    1.926347   -1.537295
     13          1           0        2.112726    0.560647   -0.575410
     14          1           0        4.358619   -1.965652   -2.227445
     15          1           0        3.241428   -1.717569   -0.901554
     16          1           0        2.597861   -0.255236   -2.808229
     17          1           0        4.198997    0.465881   -2.805192
     18          8           0        3.980120    1.262286   -0.128921
     19          8           0        5.661560    0.710079    1.147572
     20          6           0        4.950611    0.421277    0.213750
     21          6           0        2.105878   -0.962570    2.317877
     22          1           0        2.286432   -1.253001    3.351695
     23          1           0        2.468191   -1.761800    1.672535
     24          1           0        2.686030   -0.065162    2.109760
     25          7           0       -4.449590    1.105049   -0.018925
     26          7           0       -4.573488   -0.161489   -0.306739
     27          6           0       -3.399800   -0.836119   -0.151572
     28          6           0       -2.432676    0.073548    0.271961
     29          7           0       -3.180149    1.215662    0.320752
     30          6           0       -5.860053   -0.686415   -0.710794
     31          6           0       -2.098389    3.258324   -0.538800
     32          6           0       -2.691051    2.544941    0.658906
     33          6           0       -1.952557   -2.893829   -0.146636
     34          6           0       -3.321155   -2.298823   -0.423764
     35          1           0       -6.208332   -1.411507    0.018862
     36          1           0       -6.559997    0.137009   -0.771199
     37          1           0       -5.771459   -1.165418   -1.680889
     38          1           0       -1.734286    4.238479   -0.238665
     39          1           0       -1.264334    2.694350   -0.949833
     40          1           0       -2.844218    3.395842   -1.318778
     41          1           0       -3.526674    3.102581    1.072070
     42          1           0       -1.948820    2.411288    1.438903
     43          1           0       -1.956314   -3.959481   -0.365212
     44          1           0       -1.187793   -2.422299   -0.759129
     45          1           0       -1.669755   -2.759989    0.894961
     46          1           0       -4.072902   -2.817999    0.175440
     47          1           0       -3.596087   -2.486578   -1.464688
 ---------------------------------------------------------------------
 Rotational constants (GHZ):      0.5173729      0.1199455      0.1121701
 Leave Link  202 at Fri Nov 26 20:34:51 2021, MaxMem=  6710886400 cpu:         0.1
 (Enter /usr/local/gqt/g09/l301.exe)
 Standard basis: 6-311+G(d,p) (5D, 7F)
 Ernie: Thresh=  0.10000D-02 Tol=  0.10000D-05 Strict=F.
 There are   622 symmetry adapted cartesian basis functions of A   symmetry.
 There are   602 symmetry adapted basis functions of A   symmetry.
   602 basis functions,   936 primitive gaussians,   622 cartesian basis functions
    78 alpha electrons       78 beta electrons
       nuclear repulsion energy      1590.5185113789 Hartrees.
 IExCor= 5547 DFT=T Ex+Corr=N12SX ExCW=0 ScaHFX=  0.250000
 ScaDFX=  1.000000  1.000000  1.000000  1.000000 ScalE2=  1.000000  1.000000
 IRadAn=      0 IRanWt=     -1 IRanGd=            0 ICorTp=0 IEmpDi=  4
  HFx wShort=  0.110000 wLong=  0.000000 cFull=  0.000000 cShort=  1.000000 cLong=  0.000000
  DFx wShort=  0.110000 wLong=  0.000000 cFull=  0.000000 cShort=  1.000000 cLong=  0.000000
 NAtoms=   47 NActive=   47 NUniq=   47 SFac= 1.00D+00 NAtFMM=   60 NAOKFM=F Big=F
 Integral buffers will be    131072 words long.
 Raffenetti 2 integral format.
 Two-electron integral symmetry is turned on.
 ------------------------------------------------------------------------------
 Polarizable Continuum Model (PCM)
 =================================
 Model                : PCM (using non-symmetric T matrix).
 Atomic radii         : UFF (Universal Force Field).
 Polarization charges : Total charges.
 Charge compensation  : None.
 Solution method      : On-the-fly selection.
 Cavity type          : Scaled VdW (van der Waals Surface) (Alpha=1.100).
 Cavity algorithm     : GePol (No added spheres)
                        Default sphere list used, NSphG=   47.
                        Lebedev-Laikov grids with approx.  5.0 points / Ang**2.
                        Smoothing algorithm: Karplus/York (Gamma=1.0000).
                        Polarization charges: spherical gaussians, with
                                              point-specific exponents (IZeta= 3).
                        Self-potential: point-specific (ISelfS= 7).
                        Self-field    : sphere-specific E.n sum rule (ISelfD= 2).
 1st derivatives      : Analytical E(r).r(x)/FMM algorithm (CHGder, D1EAlg=3).
                        Cavity 1st derivative terms included.
 Solvent              : Ethanol, Eps=  24.852000 Eps(inf)=   1.852593
 ------------------------------------------------------------------------------
 GePol: Number of generator spheres                  =      47
 GePol: Total number of spheres                      =      47
 GePol: Number of exposed spheres                    =      47 (100.00%)
 GePol: Number of points                             =    3466
 GePol: Average weight of points                     =       0.13
 GePol: Minimum weight of points                     =   0.17D-11
 GePol: Maximum weight of points                     =    0.20577
 GePol: Number of points with low weight             =     245
 GePol: Fraction of low-weight points (<1% of avg)   =       7.07%
 GePol: Cavity surface area                          =    438.382 Ang**2
 GePol: Cavity volume                                =    455.980 Ang**3
 Leave Link  301 at Fri Nov 26 20:34:51 2021, MaxMem=  6710886400 cpu:         0.7
 (Enter /usr/local/gqt/g09/l302.exe)
 NPDir=0 NMtPBC=     1 NCelOv=     1 NCel=       1 NClECP=     1 NCelD=      1
         NCelK=      1 NCelE2=     1 NClLst=     1 CellRange=     0.0.
 One-electron integrals computed using PRISM.
 NBasis=   602 RedAO= T EigKep=  2.33D-06  NBF=   602
 NBsUse=   602 1.00D-06 EigRej= -1.00D+00 NBFU=   602
 Precomputing XC quadrature grid using
 IXCGrd= 4 IRadAn=           0 IRanWt=          -1 IRanGd=           0 AccXCQ= 0.00D+00.
 Generated NRdTot=       0 NPtTot=           0 NUsed=           0 NTot=          32
 NSgBfM=   610   610   610   610   610 MxSgAt=    47 MxSgA2=    47.
 Leave Link  302 at Fri Nov 26 20:34:52 2021, MaxMem=  6710886400 cpu:        15.3
 (Enter /usr/local/gqt/g09/l303.exe)
 DipDrv:  MaxL=1.
 Leave Link  303 at Fri Nov 26 20:34:52 2021, MaxMem=  6710886400 cpu:         1.4
 (Enter /usr/local/gqt/g09/l401.exe)
 ExpMin= 4.38D-02 ExpMax= 8.59D+03 ExpMxC= 1.30D+03 IAcc=2 IRadAn=         4 AccDes= 0.00D+00
 Harris functional with IExCor= 5547 and IRadAn=       4 diagonalized for initial guess.
 HarFok:  IExCor= 5547 AccDes= 0.00D+00 IRadAn=         4 IDoV= 1 UseB2=F ITyADJ=14
 ICtDFT=  3500011 ScaDFX=  1.000000  1.000000  1.000000  1.000000
 FoFCou: FMM=F IPFlag=           0 FMFlag=      100000 FMFlg1=           0
         NFxFlg=           0 DoJE=T BraDBF=F KetDBF=T FulRan=T
         wScrn=  0.000000 ICntrl=     500 IOpCl=  0 I1Cent=   200000004 NGrid=           0
         NMat0=    1 NMatS0=      1 NMatT0=    0 NMatD0=    1 NMtDS0=    0 NMtDT0=    0
 Petite list used in FoFCou.
 Harris En= -910.676613517226    
 JPrj=0 DoOrth=F DoCkMO=F.
 Leave Link  401 at Fri Nov 26 20:34:54 2021, MaxMem=  6710886400 cpu:        40.8
 (Enter /usr/local/gqt/g09/l502.exe)
 Closed shell SCF:
 Using DIIS extrapolation, IDIIS=  1040.
 Integral symmetry usage will be decided dynamically.
 IVT=     1193810 IEndB=     1193810 NGot=  6710886400 MDV=  6710096737
 LenX=  6710096737 LenY=  6709709231
 Requested convergence on RMS density matrix=1.00D-08 within 128 cycles.
 Requested convergence on MAX density matrix=1.00D-06.
 Requested convergence on             energy=1.00D-06.
 No special actions if energy rises.
 Fock matrices will be formed incrementally for  20 cycles.

 Cycle   1  Pass 1  IDiag  1:
 FoFJK:  IHMeth= 1 ICntrl=       0 DoSepK=T KAlg= 0 I1Cent=   0 FoldK=F
 IRaf=         1 NMat=   1 IRICut=       1 DoRegI=T DoRafI=F ISym2E= 0.
 FoFCou: FMM=F IPFlag=           0 FMFlag=      100000 FMFlg1=           0
         NFxFlg=           0 DoJE=T BraDBF=F KetDBF=F FulRan=T
         wScrn=  0.000000 ICntrl=     500 IOpCl=  0 I1Cent=           0 NGrid=           0
         NMat0=    1 NMatS0=      1 NMatT0=    0 NMatD0=    1 NMtDS0=    0 NMtDT0=    0
 Symmetry not used in FoFCou.
 Inv3:  Mode=1 IEnd=    36039468.
 Iteration    1 A*A^-1 deviation from unit magnitude is 8.88D-15 for   3461.
 Iteration    1 A*A^-1 deviation from orthogonality  is 6.14D-15 for   2579    855.
 Iteration    1 A^-1*A deviation from unit magnitude is 8.66D-15 for   3461.
 Iteration    1 A^-1*A deviation from orthogonality  is 1.00D-11 for   2952   2933.
 E= -938.938434452058    
 DIIS: error= 5.90D-02 at cycle   1 NSaved=   1.
 NSaved= 1 IEnMin= 1 EnMin= -938.938434452058     IErMin= 1 ErrMin= 5.90D-02
 ErrMax= 5.90D-02  0.00D+00 EMaxC= 1.00D-01 BMatC= 2.45D+00 BMatP= 2.45D+00
 IDIUse=3 WtCom= 4.10D-01 WtEn= 5.90D-01
 Coeff-Com:  0.100D+01
 Coeff-En:   0.100D+01
 Coeff:      0.100D+01
 Gap=     0.317 Goal=   None    Shift=    0.000
 GapD=    0.317 DampG=1.000 DampE=0.500 DampFc=0.5000 IDamp=-1.
 Damping current iteration by 5.00D-01
 RMSDP=1.18D-02 MaxDP=2.99D+00              OVMax= 3.73D-01

 Cycle   2  Pass 1  IDiag  1:
 RMSU=  3.00D-03    CP:  8.83D-01
 E= -939.026616460188     Delta-E=       -0.088182008129 Rises=F Damp=T
 DIIS: error= 2.69D-02 at cycle   2 NSaved=   2.
 NSaved= 2 IEnMin= 2 EnMin= -939.026616460188     IErMin= 2 ErrMin= 2.69D-02
 ErrMax= 2.69D-02  0.00D+00 EMaxC= 1.00D-01 BMatC= 5.28D-01 BMatP= 2.45D+00
 IDIUse=3 WtCom= 7.31D-01 WtEn= 2.69D-01
 Coeff-Com: -0.236D+00 0.124D+01
 Coeff-En:   0.394D+00 0.606D+00
 Coeff:     -0.662D-01 0.107D+01
 Gap=     0.191 Goal=   None    Shift=    0.000
 RMSDP=7.62D-03 MaxDP=1.39D+00 DE=-8.82D-02 OVMax= 6.01D-01

 Cycle   3  Pass 1  IDiag  1:
 RMSU=  4.12D-03    CP:  7.67D-01 -3.43D-01
 E= -938.910529797342     Delta-E=        0.116086662846 Rises=F Damp=F
 DIIS: error= 3.97D-02 at cycle   3 NSaved=   3.
 NSaved= 3 IEnMin= 2 EnMin= -939.026616460188     IErMin= 2 ErrMin= 2.69D-02
 ErrMax= 3.97D-02  0.00D+00 EMaxC= 1.00D-01 BMatC= 5.29D-01 BMatP= 5.28D-01
 IDIUse=3 WtCom= 6.03D-01 WtEn= 3.97D-01
 Coeff-Com: -0.317D+00 0.775D+00 0.542D+00
 Coeff-En:   0.000D+00 0.588D+00 0.412D+00
 Coeff:     -0.191D+00 0.701D+00 0.490D+00
 Gap=     0.334 Goal=   None    Shift=    0.000
 RMSDP=5.06D-03 MaxDP=6.92D-01 DE= 1.16D-01 OVMax= 3.42D-01

 Cycle   4  Pass 1  IDiag  1:
 RMSU=  1.60D-03    CP:  7.47D-01  8.94D-01  2.94D-01
 E= -939.364679418309     Delta-E=       -0.454149620967 Rises=F Damp=F
 DIIS: error= 1.36D-02 at cycle   4 NSaved=   4.
 NSaved= 4 IEnMin= 4 EnMin= -939.364679418309     IErMin= 4 ErrMin= 1.36D-02
 ErrMax= 1.36D-02  0.00D+00 EMaxC= 1.00D-01 BMatC= 4.06D-02 BMatP= 5.28D-01
 IDIUse=3 WtCom= 8.64D-01 WtEn= 1.36D-01
 Coeff-Com: -0.133D+00 0.311D+00 0.305D+00 0.517D+00
 Coeff-En:   0.000D+00 0.000D+00 0.482D-01 0.952D+00
 Coeff:     -0.115D+00 0.269D+00 0.270D+00 0.576D+00
 Gap=     0.188 Goal=   None    Shift=    0.000
 RMSDP=1.77D-03 MaxDP=3.04D-01 DE=-4.54D-01 OVMax= 1.42D-01

 Cycle   5  Pass 1  IDiag  1:
 RMSU=  7.18D-04    CP:  7.25D-01  6.39D-01  5.24D-01  7.02D-01
 E= -939.393818920151     Delta-E=       -0.029139501843 Rises=F Damp=F
 DIIS: error= 7.09D-03 at cycle   5 NSaved=   5.
 NSaved= 5 IEnMin= 5 EnMin= -939.393818920151     IErMin= 5 ErrMin= 7.09D-03
 ErrMax= 7.09D-03  0.00D+00 EMaxC= 1.00D-01 BMatC= 1.02D-02 BMatP= 4.06D-02
 IDIUse=3 WtCom= 9.29D-01 WtEn= 7.09D-02
 Coeff-Com: -0.125D-01 0.316D-01 0.359D-01 0.347D+00 0.598D+00
 Coeff-En:   0.000D+00 0.000D+00 0.000D+00 0.237D+00 0.763D+00
 Coeff:     -0.117D-01 0.294D-01 0.333D-01 0.339D+00 0.609D+00
 Gap=     0.186 Goal=   None    Shift=    0.000
 RMSDP=5.27D-04 MaxDP=9.16D-02 DE=-2.91D-02 OVMax= 3.64D-02

 Cycle   6  Pass 1  IDiag  1:
 RMSU=  2.42D-04    CP:  7.30D-01  7.06D-01  4.64D-01  8.12D-01  7.74D-01
 E= -939.401953587382     Delta-E=       -0.008134667231 Rises=F Damp=F
 DIIS: error= 1.01D-03 at cycle   6 NSaved=   6.
 NSaved= 6 IEnMin= 6 EnMin= -939.401953587382     IErMin= 6 ErrMin= 1.01D-03
 ErrMax= 1.01D-03  0.00D+00 EMaxC= 1.00D-01 BMatC= 6.83D-04 BMatP= 1.02D-02
 IDIUse=3 WtCom= 9.90D-01 WtEn= 1.01D-02
 Coeff-Com:  0.674D-02-0.138D-01-0.152D-01 0.147D+00 0.365D+00 0.510D+00
 Coeff-En:   0.000D+00 0.000D+00 0.000D+00 0.000D+00 0.000D+00 0.100D+01
 Coeff:      0.667D-02-0.137D-01-0.150D-01 0.146D+00 0.362D+00 0.515D+00
 Gap=     0.185 Goal=   None    Shift=    0.000
 RMSDP=1.28D-04 MaxDP=1.62D-02 DE=-8.13D-03 OVMax= 5.16D-03

 Cycle   7  Pass 1  IDiag  1:
 RMSU=  6.46D-05    CP:  7.29D-01  7.20D-01  4.56D-01  8.22D-01  7.54D-01
                    CP:  6.71D-01
 E= -939.402516395573     Delta-E=       -0.000562808190 Rises=F Damp=F
 DIIS: error= 1.61D-04 at cycle   7 NSaved=   7.
 NSaved= 7 IEnMin= 7 EnMin= -939.402516395573     IErMin= 7 ErrMin= 1.61D-04
 ErrMax= 1.61D-04  0.00D+00 EMaxC= 1.00D-01 BMatC= 1.33D-05 BMatP= 6.83D-04
 IDIUse=3 WtCom= 9.98D-01 WtEn= 1.61D-03
 Coeff-Com:  0.257D-02-0.513D-02-0.698D-02 0.480D-01 0.121D+00 0.212D+00
 Coeff-Com:  0.628D+00
 Coeff-En:   0.000D+00 0.000D+00 0.000D+00 0.000D+00 0.000D+00 0.000D+00
 Coeff-En:   0.100D+01
 Coeff:      0.257D-02-0.512D-02-0.697D-02 0.479D-01 0.121D+00 0.212D+00
 Coeff:      0.629D+00
 Gap=     0.184 Goal=   None    Shift=    0.000
 RMSDP=2.49D-05 MaxDP=3.09D-03 DE=-5.63D-04 OVMax= 1.63D-03

 Cycle   8  Pass 1  IDiag  1:
 RMSU=  1.72D-05    CP:  7.29D-01  7.22D-01  4.54D-01  8.23D-01  7.66D-01
                    CP:  7.07D-01  9.22D-01
 E= -939.402523409056     Delta-E=       -0.000007013483 Rises=F Damp=F
 DIIS: error= 8.66D-05 at cycle   8 NSaved=   8.
 NSaved= 8 IEnMin= 8 EnMin= -939.402523409056     IErMin= 8 ErrMin= 8.66D-05
 ErrMax= 8.66D-05  0.00D+00 EMaxC= 1.00D-01 BMatC= 5.29D-06 BMatP= 1.33D-05
 IDIUse=1 WtCom= 1.00D+00 WtEn= 0.00D+00
 Coeff-Com:  0.474D-03-0.839D-03-0.221D-02 0.111D-01 0.262D-01 0.667D-01
 Coeff-Com:  0.421D+00 0.477D+00
 Coeff:      0.474D-03-0.839D-03-0.221D-02 0.111D-01 0.262D-01 0.667D-01
 Coeff:      0.421D+00 0.477D+00
 Gap=     0.184 Goal=   None    Shift=    0.000
 RMSDP=1.45D-05 MaxDP=2.51D-03 DE=-7.01D-06 OVMax= 9.39D-04

 Cycle   9  Pass 1  IDiag  1:
 RMSU=  8.78D-06    CP:  7.29D-01  7.23D-01  4.53D-01  8.22D-01  7.68D-01
                    CP:  7.09D-01  9.61D-01  9.33D-01
 E= -939.402527387097     Delta-E=       -0.000003978041 Rises=F Damp=F
 DIIS: error= 3.56D-05 at cycle   9 NSaved=   9.
 NSaved= 9 IEnMin= 9 EnMin= -939.402527387097     IErMin= 9 ErrMin= 3.56D-05
 ErrMax= 3.56D-05  0.00D+00 EMaxC= 1.00D-01 BMatC= 4.42D-07 BMatP= 5.29D-06
 IDIUse=1 WtCom= 1.00D+00 WtEn= 0.00D+00
 Coeff-Com: -0.764D-04 0.186D-03-0.439D-03 0.224D-03-0.156D-02 0.106D-01
 Coeff-Com:  0.157D+00 0.274D+00 0.559D+00
 Coeff:     -0.764D-04 0.186D-03-0.439D-03 0.224D-03-0.156D-02 0.106D-01
 Coeff:      0.157D+00 0.274D+00 0.559D+00
 Gap=     0.184 Goal=   None    Shift=    0.000
 RMSDP=3.60D-06 MaxDP=4.43D-04 DE=-3.98D-06 OVMax= 1.96D-04

 Cycle  10  Pass 1  IDiag  1:
 RMSU=  1.94D-06    CP:  7.29D-01  7.24D-01  4.53D-01  8.23D-01  7.67D-01
                    CP:  7.15D-01  9.69D-01  9.49D-01  8.82D-01
 E= -939.402527757144     Delta-E=       -0.000000370047 Rises=F Damp=F
 DIIS: error= 5.25D-06 at cycle  10 NSaved=  10.
 NSaved=10 IEnMin=10 EnMin= -939.402527757144     IErMin=10 ErrMin= 5.25D-06
 ErrMax= 5.25D-06  0.00D+00 EMaxC= 1.00D-01 BMatC= 2.68D-08 BMatP= 4.42D-07
 IDIUse=1 WtCom= 1.00D+00 WtEn= 0.00D+00
 Coeff-Com: -0.647D-04 0.139D-03-0.384D-04-0.671D-03-0.297D-02-0.930D-03
 Coeff-Com:  0.288D-01 0.770D-01 0.242D+00 0.657D+00
 Coeff:     -0.647D-04 0.139D-03-0.384D-04-0.671D-03-0.297D-02-0.930D-03
 Coeff:      0.288D-01 0.770D-01 0.242D+00 0.657D+00
 Gap=     0.184 Goal=   None    Shift=    0.000
 RMSDP=1.12D-06 MaxDP=1.54D-04 DE=-3.70D-07 OVMax= 3.19D-05

 Cycle  11  Pass 1  IDiag  1:
 RMSU=  5.50D-07    CP:  7.29D-01  7.24D-01  4.53D-01  8.23D-01  7.68D-01
                    CP:  7.18D-01  9.75D-01  9.65D-01  8.91D-01  9.22D-01
 E= -939.402527776750     Delta-E=       -0.000000019606 Rises=F Damp=F
 DIIS: error= 2.79D-06 at cycle  11 NSaved=  11.
 NSaved=11 IEnMin=11 EnMin= -939.402527776750     IErMin=11 ErrMin= 2.79D-06
 ErrMax= 2.79D-06  0.00D+00 EMaxC= 1.00D-01 BMatC= 3.42D-09 BMatP= 2.68D-08
 IDIUse=1 WtCom= 1.00D+00 WtEn= 0.00D+00
 Coeff-Com: -0.289D-04 0.598D-04 0.118D-05-0.330D-03-0.150D-02-0.112D-02
 Coeff-Com:  0.466D-02 0.228D-01 0.862D-01 0.343D+00 0.546D+00
 Coeff:     -0.289D-04 0.598D-04 0.118D-05-0.330D-03-0.150D-02-0.112D-02
 Coeff:      0.466D-02 0.228D-01 0.862D-01 0.343D+00 0.546D+00
 Gap=     0.184 Goal=   None    Shift=    0.000
 RMSDP=4.43D-07 MaxDP=6.36D-05 DE=-1.96D-08 OVMax= 1.19D-05

 Cycle  12  Pass 1  IDiag  1:
 RMSU=  1.86D-07    CP:  7.29D-01  7.24D-01  4.53D-01  8.23D-01  7.68D-01
                    CP:  7.18D-01  9.76D-01  9.71D-01  9.03D-01  9.58D-01
                    CP:  9.51D-01
 E= -939.402527778871     Delta-E=       -0.000000002120 Rises=F Damp=F
 DIIS: error= 1.89D-06 at cycle  12 NSaved=  12.
 NSaved=12 IEnMin=12 EnMin= -939.402527778871     IErMin=12 ErrMin= 1.89D-06
 ErrMax= 1.89D-06  0.00D+00 EMaxC= 1.00D-01 BMatC= 8.70D-10 BMatP= 3.42D-09
 IDIUse=1 WtCom= 1.00D+00 WtEn= 0.00D+00
 Coeff-Com: -0.419D-05 0.709D-05 0.225D-05-0.341D-04-0.315D-03-0.393D-03
 Coeff-Com: -0.266D-02-0.980D-03 0.320D-02 0.775D-01 0.367D+00 0.557D+00
 Coeff:     -0.419D-05 0.709D-05 0.225D-05-0.341D-04-0.315D-03-0.393D-03
 Coeff:     -0.266D-02-0.980D-03 0.320D-02 0.775D-01 0.367D+00 0.557D+00
 Gap=     0.184 Goal=   None    Shift=    0.000
 RMSDP=1.49D-07 MaxDP=2.35D-05 DE=-2.12D-09 OVMax= 7.49D-06

 Cycle  13  Pass 1  IDiag  1:
 RMSU=  5.78D-08    CP:  7.29D-01  7.24D-01  4.53D-01  8.23D-01  7.68D-01
                    CP:  7.18D-01  9.76D-01  9.74D-01  9.05D-01  9.67D-01
                    CP:  9.71D-01  6.95D-01
 E= -939.402527779483     Delta-E=       -0.000000000612 Rises=F Damp=F
 DIIS: error= 3.69D-07 at cycle  13 NSaved=  13.
 NSaved=13 IEnMin=13 EnMin= -939.402527779483     IErMin=13 ErrMin= 3.69D-07
 ErrMax= 3.69D-07  0.00D+00 EMaxC= 1.00D-01 BMatC= 6.93D-11 BMatP= 8.70D-10
 IDIUse=1 WtCom= 1.00D+00 WtEn= 0.00D+00
 Coeff-Com:  0.257D-06-0.162D-05 0.718D-06 0.694D-05-0.550D-04-0.135D-03
 Coeff-Com: -0.216D-02-0.302D-02-0.680D-02 0.111D-01 0.153D+00 0.314D+00
 Coeff-Com:  0.535D+00
 Coeff:      0.257D-06-0.162D-05 0.718D-06 0.694D-05-0.550D-04-0.135D-03
 Coeff:     -0.216D-02-0.302D-02-0.680D-02 0.111D-01 0.153D+00 0.314D+00
 Coeff:      0.535D+00
 Gap=     0.184 Goal=   None    Shift=    0.000
 RMSDP=7.81D-08 MaxDP=1.91D-05 DE=-6.12D-10 OVMax= 1.86D-06

 Cycle  14  Pass 1  IDiag  1:
 RMSU=  2.42D-08    CP:  7.29D-01  7.24D-01  4.53D-01  8.23D-01  7.68D-01
                    CP:  7.18D-01  9.77D-01  9.74D-01  9.06D-01  9.66D-01
                    CP:  9.91D-01  7.07D-01  8.49D-01
 E= -939.402527779544     Delta-E=       -0.000000000061 Rises=F Damp=F
 DIIS: error= 1.55D-07 at cycle  14 NSaved=  14.
 NSaved=14 IEnMin=14 EnMin= -939.402527779544     IErMin=14 ErrMin= 1.55D-07
 ErrMax= 1.55D-07  0.00D+00 EMaxC= 1.00D-01 BMatC= 8.38D-12 BMatP= 6.93D-11
 IDIUse=1 WtCom= 1.00D+00 WtEn= 0.00D+00
 Coeff-Com:  0.129D-06-0.482D-06-0.200D-06 0.870D-05 0.876D-05 0.335D-05
 Coeff-Com: -0.528D-03-0.103D-02-0.304D-02-0.439D-02 0.244D-01 0.858D-01
 Coeff-Com:  0.310D+00 0.589D+00
 Coeff:      0.129D-06-0.482D-06-0.200D-06 0.870D-05 0.876D-05 0.335D-05
 Coeff:     -0.528D-03-0.103D-02-0.304D-02-0.439D-02 0.244D-01 0.858D-01
 Coeff:      0.310D+00 0.589D+00
 Gap=     0.184 Goal=   None    Shift=    0.000
 RMSDP=2.45D-08 MaxDP=6.43D-06 DE=-6.09D-11 OVMax= 5.47D-07

 Cycle  15  Pass 1  IDiag  1:
 RMSU=  6.59D-09    CP:  7.29D-01  7.24D-01  4.53D-01  8.23D-01  7.68D-01
                    CP:  7.18D-01  9.77D-01  9.74D-01  9.06D-01  9.69D-01
                    CP:  9.91D-01  7.19D-01  8.31D-01  6.39D-01
 E= -939.402527779498     Delta-E=        0.000000000046 Rises=F Damp=F
 DIIS: error= 1.96D-08 at cycle  15 NSaved=  15.
 NSaved=15 IEnMin=14 EnMin= -939.402527779544     IErMin=15 ErrMin= 1.96D-08
 ErrMax= 1.96D-08  0.00D+00 EMaxC= 1.00D-01 BMatC= 4.89D-13 BMatP= 8.38D-12
 IDIUse=1 WtCom= 1.00D+00 WtEn= 0.00D+00
 Coeff-Com:  0.164D-06-0.323D-06-0.300D-06 0.419D-05 0.102D-04 0.138D-04
 Coeff-Com: -0.119D-03-0.333D-03-0.111D-02-0.326D-02-0.426D-03 0.178D-01
 Coeff-Com:  0.103D+00 0.273D+00 0.611D+00
 Coeff:      0.164D-06-0.323D-06-0.300D-06 0.419D-05 0.102D-04 0.138D-04
 Coeff:     -0.119D-03-0.333D-03-0.111D-02-0.326D-02-0.426D-03 0.178D-01
 Coeff:      0.103D+00 0.273D+00 0.611D+00
 Gap=     0.184 Goal=   None    Shift=    0.000
 RMSDP=6.71D-09 MaxDP=1.88D-06 DE= 4.59D-11 OVMax= 1.23D-07

 Cycle  16  Pass 1  IDiag  1:
 RMSU=  2.00D-09    CP:  7.29D-01  7.24D-01  4.53D-01  8.23D-01  7.68D-01
                    CP:  7.18D-01  9.77D-01  9.74D-01  9.06D-01  9.68D-01
                    CP:  9.93D-01  7.20D-01  8.42D-01  6.83D-01  8.25D-01
 E= -939.402527779518     Delta-E=       -0.000000000020 Rises=F Damp=F
 DIIS: error= 4.34D-09 at cycle  16 NSaved=  16.
 NSaved=16 IEnMin=14 EnMin= -939.402527779544     IErMin=16 ErrMin= 4.34D-09
 ErrMax= 4.34D-09  0.00D+00 EMaxC= 1.00D-01 BMatC= 2.99D-14 BMatP= 4.89D-13
 IDIUse=1 WtCom= 1.00D+00 WtEn= 0.00D+00
 Coeff-Com:  0.763D-08 0.839D-08-0.522D-07 0.610D-06 0.196D-05 0.470D-05
 Coeff-Com:  0.118D-04-0.144D-04-0.836D-04-0.717D-03-0.266D-02-0.110D-02
 Coeff-Com:  0.990D-02 0.525D-01 0.247D+00 0.695D+00
 Coeff:      0.763D-08 0.839D-08-0.522D-07 0.610D-06 0.196D-05 0.470D-05
 Coeff:      0.118D-04-0.144D-04-0.836D-04-0.717D-03-0.266D-02-0.110D-02
 Coeff:      0.990D-02 0.525D-01 0.247D+00 0.695D+00
 Gap=     0.184 Goal=   None    Shift=    0.000
 RMSDP=1.53D-09 MaxDP=3.83D-07 DE=-2.00D-11 OVMax= 3.99D-08

 Error on total polarization charges =  0.01721
 SCF Done:  E(RN12SX) =  -939.402527780     A.U. after   16 cycles
            NFock= 16  Conv=0.15D-08     -V/T= 2.0054
 KE= 9.343360744659D+02 PE=-5.372093667206D+03 EE= 1.907836553581D+03
 Leave Link  502 at Fri Nov 26 20:41:13 2021, MaxMem=  6710886400 cpu:      6004.1
 (Enter /usr/local/gqt/g09/l601.exe)
 Copying SCF densities to generalized density rwf, IOpCl= 0 IROHF=0.

 **********************************************************************

            Population analysis using the SCF density.

 **********************************************************************

 Orbital symmetries:
       Occupied  (A) (A) (A) (A) (A) (A) (A) (A) (A) (A) (A) (A)
                 (A) (A) (A) (A) (A) (A) (A) (A) (A) (A) (A) (A)
                 (A) (A) (A) (A) (A) (A) (A) (A) (A) (A) (A) (A)
                 (A) (A) (A) (A) (A) (A) (A) (A) (A) (A) (A) (A)
                 (A) (A) (A) (A) (A) (A) (A) (A) (A) (A) (A) (A)
                 (A) (A) (A) (A) (A) (A) (A) (A) (A) (A) (A) (A)
                 (A) (A) (A) (A) (A) (A)
       Virtual   (A) (A) (A) (A) (A) (A) (A) (A) (A) (A) (A) (A)
                 (A) (A) (A) (A) (A) (A) (A) (A) (A) (A) (A) (A)
                 (A) (A) (A) (A) (A) (A) (A) (A) (A) (A) (A) (A)
                 (A) (A) (A) (A) (A) (A) (A) (A) (A) (A) (A) (A)
                 (A) (A) (A) (A) (A) (A) (A) (A) (A) (A) (A) (A)
                 (A) (A) (A) (A) (A) (A) (A) (A) (A) (A) (A) (A)
                 (A) (A) (A) (A) (A) (A) (A) (A) (A) (A) (A) (A)
                 (A) (A) (A) (A) (A) (A) (A) (A) (A) (A) (A) (A)
                 (A) (A) (A) (A) (A) (A) (A) (A) (A) (A) (A) (A)
                 (A) (A) (A) (A) (A) (A) (A) (A) (A) (A) (A) (A)
                 (A) (A) (A) (A) (A) (A) (A) (A) (A) (A) (A) (A)
                 (A) (A) (A) (A) (A) (A) (A) (A) (A) (A) (A) (A)
                 (A) (A) (A) (A) (A) (A) (A) (A) (A) (A) (A) (A)
                 (A) (A) (A) (A) (A) (A) (A) (A) (A) (A) (A) (A)
                 (A) (A) (A) (A) (A) (A) (A) (A) (A) (A) (A) (A)
                 (A) (A) (A) (A) (A) (A) (A) (A) (A) (A) (A) (A)
                 (A) (A) (A) (A) (A) (A) (A) (A) (A) (A) (A) (A)
                 (A) (A) (A) (A) (A) (A) (A) (A) (A) (A) (A) (A)
                 (A) (A) (A) (A) (A) (A) (A) (A) (A) (A) (A) (A)
                 (A) (A) (A) (A) (A) (A) (A) (A) (A) (A) (A) (A)
                 (A) (A) (A) (A) (A) (A) (A) (A) (A) (A) (A) (A)
                 (A) (A) (A) (A) (A) (A) (A) (A) (A) (A) (A) (A)
                 (A) (A) (A) (A) (A) (A) (A) (A) (A) (A) (A) (A)
                 (A) (A) (A) (A) (A) (A) (A) (A) (A) (A) (A) (A)
[...]
 4,0.00010297,-0.00004816,0.00005495,0.00002122,0.00005025,0.00002312,0
 .00000043,-0.00002770,-0.00004470,0.00000217,0.00000045,0.00000383,0.0
 0000387,-0.00000038,0.00000153,-0.00000145,0.00000191,-0.00000085,0.00
 000376,0.00000920,0.00000070,0.00000340,0.00000629,-0.00000014,-0.0014
 3126,-0.00036265,-0.00044037,0.14753475,-0.00024246,-0.00004219,0.0001
 6954,-0.00008922,-0.00035152,0.00021876,-0.00001863,0.00002750,0.00007
 246,0.00000628,-0.00000622,-0.00000735,-0.00000450,-0.00000614,-0.0000
 0776,0.00000086,-0.00000236,-0.00000043,-0.00001187,-0.00000477,0.0000
 0481,0.00000147,0.00000229,0.00000176,0.00000081,0.00000023,-0.0000008
 5,-0.00000003,0.,0.00000011,-0.00000069,0.00000021,-0.00000066,-0.0000
 0048,-0.00000241,-0.00000078,-0.00000516,-0.00000263,0.00000539,0.0000
 0188,-0.00000101,0.00000067,0.00000071,0.00000283,-0.00000045,-0.00000
 344,0.00000202,-0.00000265,0.00000278,0.00000009,0.00000046,0.00001972
 ,-0.00000289,-0.00000888,0.00000724,0.00000155,-0.00000755,-0.00001785
 ,0.00000610,0.00001045,-0.00000099,0.00000162,-0.00001178,0.00000511,-
 0.00000102,-0.00000444,0.00000275,-0.00000008,0.00000120,0.00000048,-0
 .00000221,0.00000108,-0.00013535,0.00040555,-0.00004333,0.00015358,-0.
 00012681,-0.00016297,0.00005833,0.00090371,0.00083143,0.00028598,-0.00
 004960,0.00009752,-0.00005221,-0.00005467,-0.00012350,0.00007965,0.000
 01371,0.00003506,0.00000813,0.00001113,-0.00000373,-0.00002454,-0.0000
 4170,0.00002240,-0.05276402,-0.07788549,-0.07070070,0.00860303,0.00389
 245,0.01163989,-0.00004940,0.00000100,-0.00002001,-0.00002180,-0.00001
 955,-0.00001096,-0.00001409,0.00000006,0.00001165,0.00000135,0.0000071
 6,0.00000312,-0.00000540,-0.00000749,0.00000051,-0.00000035,-0.0000022
 9,0.00000065,-0.00000053,0.00000827,0.00000270,0.00000216,0.00000280,0
 .00000379,-0.01760436,-0.00909584,-0.02473230,0.05453918,0.08102017,0.
 00022108,0.00045028,0.00016343,-0.00025837,-0.00022933,0.00027777,0.00
 007922,-0.00012459,-0.00043694,0.00001888,-0.00000045,0.00005391,-0.00
 001495,0.00006433,0.00002919,0.00000032,0.00000044,-0.00000236,0.00001
 920,0.00001694,-0.00000919,0.00000777,0.00000303,0.00000920,-0.0000008
 6,0.00000077,0.00000147,-0.00000196,-0.00000263,0.00000058,0.00000342,
 -0.00000035,-0.00000590,-0.00000152,-0.00000203,-0.00000092,0.00000885
 ,0.00001142,0.00000012,-0.00000121,0.00000048,-0.00000077,0.00000022,-
 0.00000683,-0.00000774,-0.00000434,-0.00000453,0.00001167,-0.00000653,
 -0.00000291,-0.00000134,-0.00003267,-0.00000185,0.00001726,-0.00001436
 ,-0.00001139,0.00001995,0.00003015,0.00000303,-0.00002558,-0.00000360,
 0.00003473,0.00004228,-0.00001694,0.00000020,0.00001406,0.00000730,-0.
 00000621,-0.00000339,0.00000899,-0.00000138,-0.00000434,0.00025741,-0.
 00000777,-0.00015688,0.00005794,0.00012997,-0.00000146,-0.00034315,-0.
 00030774,0.00011042,-0.00044832,-0.00050935,0.00030183,0.00019995,0.00
 019313,0.00001931,0.00002567,-0.00000952,0.00001072,-0.00000430,-0.000
 00339,0.00000794,0.00002167,0.00004363,0.00001252,-0.11757815,-0.06892
 761,-0.20524166,0.00227243,0.00142464,0.00223526,0.00000631,-0.0000003
 3,0.00000029,0.00000250,0.00000104,-0.00000977,0.00002452,-0.00000783,
 -0.00000712,-0.00000040,-0.00000610,-0.00000291,0.00000571,0.00000103,
 0.00000759,0.00000293,-0.00000026,-0.00000218,0.00000605,-0.00001595,-
 0.00000068,-0.00000102,0.00001223,-0.00000940,0.00297150,0.00121561,0.
 00232468,0.12796032,0.07621406,0.21822153,0.00006891,-0.00015920,-0.00
 002067,0.00009799,0.00028139,0.00020358,-0.00026154,-0.00053015,-0.000
 17428,0.00004654,0.00010696,-0.00000687,0.00009460,0.00018318,0.000054
 42,-0.00000074,0.00000061,0.00000057,-0.00000669,-0.00000563,0.0000000
 7,-0.00000288,-0.00000231,-0.00000307,-0.00000032,-0.00000030,-0.00000
 040,0.00000080,0.00000079,0.,0.00000151,0.00000154,-0.00000067,0.00000
 080,0.00000109,0.00000061,-0.00000394,-0.00000458,-0.00000455,0.000000
 82,0.00000017,0.00000059,-0.00000003,0.00000171,0.00000081,-0.00000051
 ,-0.00000026,-0.00000076,0.00000156,0.00000031,0.00000141,0.00000890,0
 .00000070,-0.00000100,0.00000502,0.00000396,-0.00000577,-0.00001150,-0
 .00000255,0.00000605,-0.00000913,0.00007374,0.00001285,0.00000624,-0.0
 0000219,-0.00000955,-0.00000361,-0.00000458,0.00000301,0.00002957,0.00
 000531,-0.00000173,0.00018113,0.00007324,0.00006093,-0.00019187,-0.000
 11143,-0.00023346,0.00108578,-0.00150056,0.00021566,-0.00006446,0.0000
 7110,-0.00023516,0.00007282,0.00021198,-0.00010177,-0.00001324,0.00003
 849,0.00007236,0.00000803,0.00001424,-0.00000631,-0.00003139,-0.000017
 27,0.00000984,-0.10112301,-0.02901977,0.10463940,-0.01533538,-0.007112
 10,0.02739054,0.00000832,-0.00002628,0.00004221,0.00001537,0.00005405,
 -0.00004440,0.00010735,-0.00004884,-0.00008305,0.00000307,0.00000423,0
 .00000490,0.00000006,-0.00000142,0.00000069,-0.00000108,-0.00000228,-0
 .00000050,0.00000103,0.00001213,0.00000318,0.00000622,0.00000243,0.000
 00199,-0.00164354,-0.00038836,0.00086883,0.00845353,0.00522144,-0.0159
 2834,0.11247174,-0.00037880,-0.00066565,-0.00012311,0.00031109,0.00031
 771,-0.00008990,-0.00015843,-0.00045781,0.00014607,-0.00000100,0.00005
 362,-0.00002968,-0.00002028,0.00018830,0.00009308,-0.00000047,-0.00000
 086,0.00000001,-0.00000907,-0.00000616,0.00000015,-0.00000032,-0.00000
 216,0.00000042,0.00000050,0.00000005,-0.00000051,0.00000013,-0.0000004
 0,0.00000026,0.00000235,0.00000472,-0.00000075,0.00000217,0.00000143,0
 .00000170,-0.00001352,-0.00000651,-0.00001155,0.00000219,-0.00000042,0
 .00000155,-0.00000139,0.00000511,-0.00000181,-0.00000069,0.00000043,-0
 .00000016,0.00000286,-0.00000220,0.00000191,0.00002077,-0.00000372,-0.
 00000179,0.00000912,0.00000149,-0.00000629,-0.00002506,0.00000632,0.00
 000741,-0.00001561,0.00010197,0.00000141,0.00001655,-0.00000328,-0.000
 02238,0.00001360,-0.00000441,0.00001101,0.00004759,0.00000426,-0.00000
 285,-0.00031167,0.00044941,-0.00000384,0.00015465,-0.00008184,0.000130
 89,-0.00003847,0.00077880,-0.00089153,0.00028349,0.00033333,0.00004830
 ,-0.00005251,-0.00006667,0.00019414,0.00009560,0.00001614,-0.00006295,
 0.00000006,0.00001017,-0.00001735,-0.00005654,-0.00007884,0.00000367,-
 0.03012098,-0.06297150,0.05843796,0.00656917,0.00239752,-0.01292286,-0
 .00002335,-0.00000456,-0.00000612,-0.00002405,-0.00002275,0.00002340,-
 0.00005751,0.00000277,0.00003519,0.00000427,0.00000945,0.00000920,-0.0
 0000117,-0.00000395,-0.00000388,-0.00000106,0.00000144,0.00000282,-0.0
 0000057,0.00002018,-0.00000052,0.00000570,-0.00000276,0.00000629,-0.01
 402647,-0.00616258,0.02797868,0.00555560,0.00171347,-0.00985243,0.0301
 4221,0.06456476,-0.00013375,-0.00039701,0.00000441,0.00033723,0.000421
 40,-0.00065656,0.00013327,0.00037885,0.00060348,-0.00004393,-0.0000267
 8,-0.00004930,-0.00023436,-0.00022255,0.00019591,-0.00000052,0.0000003
 4,0.00000122,-0.00000940,-0.00000824,0.00000066,-0.00000575,-0.0000039
 9,-0.00000538,-0.00000074,-0.00000045,-0.00000046,0.00000144,0.0000011
 9,-0.00000013,0.00000382,0.00000444,-0.00000044,0.00000220,0.00000315,
 0.00000174,-0.00001004,-0.00000934,-0.00001237,0.00000153,-0.00000013,
 0.00000068,0.00000027,0.00000363,0.00000209,-0.00000067,-0.00000095,-0
 .00000179,0.00000321,0.00000036,0.00000276,0.00001524,0.00000159,-0.00
 000163,0.00000731,0.00000571,-0.00000737,-0.00001692,-0.00000307,0.000
 00849,0.00002569,0.00002238,-0.00002617,0.00001444,-0.00000403,-0.0000
 1506,0.00000150,-0.00000087,0.00000361,0.00002394,0.00000484,-0.000001
 57,-0.00032041,-0.00003841,-0.00007327,-0.00005845,-0.00009193,0.00006
 926,0.00019137,0.00045814,0.00008011,0.00051723,0.00079237,0.00017264,
 -0.00026302,-0.00024175,0.00008387,-0.00003355,0.00001304,0.00000256,-
 0.00000028,0.00000521,-0.00001191,-0.00001109,-0.00004246,0.00001230,0
 .10611098,0.05651379,-0.25163414,-0.00035544,-0.00050540,0.00019626,-0
 .00002229,0.00000908,-0.00000782,-0.00000568,-0.00000535,-0.00000287,-
 0.00001497,0.00000440,0.00001082,0.00000119,0.00000519,0.00000512,-0.0
 0000132,-0.00000402,-0.00000482,-0.00000232,0.00000180,0.00000390,-0.0
 0000418,0.00001391,0.00000042,-0.00000588,-0.00000722,0.00001124,-0.00
 085763,-0.00018490,-0.00035513,0.01110853,0.00653294,-0.02014424,-0.11
 634537,-0.06314913,0.26927432,0.00006967,0.00007647,-0.00004245,-0.000
 09524,-0.00007313,0.00010516,0.00000515,-0.00000215,-0.00007855,0.0000
 0154,-0.00001250,0.00001437,0.00000551,0.00000787,-0.00001080,0.000000
 31,-0.00000001,-0.00000081,0.00000565,0.00000511,-0.00000443,0.0000020
 5,0.00000039,0.00000220,-0.00000043,0.00000010,0.00000062,-0.00000065,
 -0.00000066,0.00000011,0.00000145,0.,-0.00000081,-0.00000024,-0.000000
 27,-0.00000019,0.00000174,0.00000323,-0.00000053,0.00000022,0.00000007
 ,-0.00000009,0.00000037,-0.00000127,-0.00000256,-0.00000104,-0.0000003
 0,0.00000301,-0.00000170,-0.00000101,-0.00000041,-0.00001031,-0.000000
 93,0.00000686,-0.00000459,-0.00000423,0.00000775,0.00000945,0.00000156
 ,-0.00001006,-0.00000259,-0.00000175,0.00000886,-0.00000499,0.00000016
 ,0.00000504,0.00000267,-0.00000158,-0.00000099,-0.00000179,-0.00000027
 ,-0.00000037,0.00050584,0.00084216,-0.00036306,-0.00116854,0.00007142,
 0.00066650,-0.00114432,-0.00265571,0.00087322,0.00066169,-0.00012552,-
 0.00042383,-0.00025465,-0.00033219,0.00022057,0.00089171,0.00073618,0.
 00038748,-0.00000075,-0.00001042,0.00001547,0.00006926,-0.00001063,0.0
 0000658,-0.01946212,-0.01036884,-0.02321570,-0.12572620,-0.05338710,-0
 .10718732,-0.00023027,-0.00031456,-0.00031281,0.00000251,-0.00004593,-
 0.00011737,-0.00006575,-0.00012717,0.00003040,-0.00000237,-0.00000450,
 -0.00000712,0.00000052,0.00000374,0.00000021,0.00000264,0.00000059,-0.
 00000212,-0.00001174,-0.00003306,0.00000461,-0.00000433,-0.00000139,-0
 .00000370,0.00146212,0.00006144,0.00013140,-0.00513626,0.00285216,0.00
 077376,0.00117159,-0.00073492,0.00036894,0.14095281,0.00073967,-0.0000
 8448,-0.00019038,-0.00054181,0.00010143,0.00020918,-0.00002779,-0.0000
 5628,-0.00015991,0.00000806,0.00000008,0.00001346,0.00000387,0.0000184
 5,0.00002466,-0.00000007,0.00000084,0.00000021,0.00000493,0.00000146,-
 0.00000223,-0.00000016,0.00000048,-0.00000123,-0.00000029,0.00000018,0
 .00000013,0.00000009,0.00000025,-0.00000013,-0.00000244,-0.00000302,0.
 00000064,-0.00000069,0.00000010,-0.00000008,0.00000612,0.00000176,0.00
 000536,-0.00000122,0.00000050,-0.00000034,0.00000066,-0.00000134,0.000
 00153,0.00000066,-0.00000051,-0.00000022,-0.00000111,0.00000134,-0.000
 00115,-0.00001153,0.00000308,0.00000271,-0.00000456,-0.00000038,0.0000
 0376,0.00001228,-0.00000422,-0.00000509,0.00000376,0.00001330,0.000032
 27,-0.00001417,0.00000114,0.00001161,-0.00000318,-0.00000044,-0.000002
 35,0.00000111,0.00000043,-0.00000279,-0.00068848,-0.00324165,0.0012597
 8,-0.00186728,0.00348273,-0.00008820,-0.01902917,-0.01874208,-0.024324
 28,0.00129440,-0.00160156,-0.00118518,0.00087758,-0.00100376,0.0016931
 8,-0.00033177,-0.00024283,-0.00074256,-0.00003280,-0.00004723,0.000034
 33,0.00039121,0.00019860,0.00013152,0.00894276,0.00491784,0.01146257,-
 0.05555245,-0.08328171,-0.07367009,0.00043709,-0.00002578,0.00005328,0
 .00009794,0.00012605,0.00016034,0.00026517,-0.00001111,-0.00000988,-0.
 00000973,-0.00003824,-0.00003471,0.00000905,-0.00000172,-0.00000187,0.
 00000507,0.00000504,-0.00000424,-0.00005350,-0.00015242,-0.00002731,-0
 .00002943,-0.00001556,-0.00002112,-0.00043859,0.00055696,0.00033264,0.
 00321108,-0.00057183,-0.00024064,-0.00068786,0.00019223,-0.00029312,0.
 05808831,0.09638357,0.00009195,0.00001124,0.00001969,-0.00007725,-0.00
 000987,0.00002377,-0.00000308,0.00001884,-0.00002204,0.00000410,-0.000
 00221,0.00000380,0.00000369,-0.00001045,-0.00000838,0.00000006,0.00000
 025,-0.00000013,0.00000344,0.00000245,-0.00000187,0.00000049,-0.000000
 03,0.00000062,-0.00000011,0.00000007,0.00000034,-0.00000024,-0.0000002
 1,-0.00000006,0.00000017,-0.00000035,0.00000004,-0.00000020,0.00000018
 ,-0.00000013,0.00000219,0.00000082,0.00000135,-0.00000009,0.00000027,-
 0.00000018,0.00000022,-0.00000058,-0.00000048,0.00000005,-0.00000021,0
 .00000094,-0.00000084,-0.00000016,-0.00000048,-0.00000751,0.00000051,0
 .00000303,-0.00000331,-0.00000186,0.00000358,0.00000732,-0.00000042,-0
 .00000471,0.00000183,-0.00000886,0.00000081,-0.00000231,0.00000057,0.0
 0000325,-0.00000192,0.00000040,-0.00000093,-0.00000474,-0.00000113,-0.
 00000012,0.00000334,-0.00058088,-0.00013246,-0.00077895,-0.00016702,0.
 00099701,0.00364539,0.00108146,0.00397752,0.00023930,0.00076893,-0.000
 10417,0.00040361,-0.00002645,-0.00049667,-0.00015172,0.00015654,0.0002
 4100,-0.00000272,-0.00000462,0.00000328,0.00002415,0.00006875,-0.00000
 227,0.00180034,0.00155199,0.00185689,-0.10784482,-0.07246952,-0.188055
 92,0.00030072,-0.00030058,0.00002673,0.00011472,0.00015050,0.00001935,
 -0.00016625,-0.00000129,-0.00035285,-0.00000473,-0.00000377,-0.0000009
 5,0.00000082,0.00000247,-0.00000102,-0.00000107,0.00000264,0.00000216,
 -0.00000251,0.00000313,0.00000194,-0.00000492,0.00000105,0.00000296,-0
 .00031994,0.00040004,0.00007320,0.00070800,0.00007540,0.00135901,-0.00
 019883,0.00028817,0.00076447,0.11793408,0.07952235,0.20202489,0.000042
 47,0.00010942,0.00002029,-0.00007308,-0.00009621,0.00003964,0.00000234
 ,0.00009046,-0.00000186,0.00000103,-0.00002241,0.00000996,0.00002422,-
 0.00003945,-0.00006291,0.00000031,-0.00000046,-0.00000056,0.00000014,0
 .00000091,0.00000217,0.00000232,0.00000236,0.00000180,0.00000073,0.000
 00022,-0.00000015,-0.00000054,-0.00000030,0.00000002,-0.00000318,-0.00
 000252,0.00000025,-0.00000126,-0.00000215,-0.00000114,0.00000225,0.000
 00345,0.00000383,-0.00000063,-0.00000002,-0.00000019,-0.00000038,-0.00
 000135,-0.00000019,0.00000055,0.00000113,-0.00000004,-0.00000088,-0.00
 000007,-0.00000112,-0.00000122,-0.00000086,-0.00000284,-0.00000110,-0.
 00000118,-0.00000038,0.00000295,0.00000160,0.00000121,-0.00000065,-0.0
 0003765,-0.00000521,-0.00000315,0.00000188,0.00000513,-0.00000157,0.00
 000245,-0.00000192,-0.00001946,-0.00000295,0.00000201,0.00049901,0.001
 02840,-0.00004191,-0.00102262,-0.00023241,-0.00019871,-0.00178927,-0.0
 0262720,0.00023489,0.00072579,-0.00005177,0.00030493,-0.00031391,-0.00
 044351,-0.00007146,0.00094796,0.00064972,-0.00070483,0.00000435,-0.000
 01680,0.00001971,0.00006283,-0.00000897,0.00000079,-0.01548200,-0.0070
 6933,0.02719560,-0.09346095,-0.02824145,0.09702025,-0.00003289,-0.0001
 6931,0.00002394,0.00002926,-0.00004222,0.00011455,-0.00014178,-0.00009
 567,0.00031957,-0.00000323,-0.00000301,-0.00000956,-0.00000329,0.00000
 463,-0.00000192,0.00000349,-0.00000023,-0.00000502,-0.00000740,-0.0000
 2906,0.00000327,-0.00000002,0.00000104,-0.00000128,0.00139988,-0.00002
 610,-0.00034917,0.00121056,-0.00078768,-0.00033306,-0.00524446,0.00283
 426,-0.00011135,0.00750440,0.00492919,-0.01571189,0.10514208,0.0007656
 0,-0.00008662,-0.00007122,-0.00057166,0.00009846,0.00016937,-0.0000108
 5,-0.00008348,-0.00018424,0.00001361,0.00001297,0.00000691,-0.00000715
 ,0.00002775,0.00005333,0.,0.00000066,0.00000051,0.00000204,-0.00000023
 ,-0.00000026,-0.00000053,0.00000057,-0.00000131,0.00000002,0.00000005,
 0.,0.00000018,0.00000030,-0.00000015,-0.00000198,-0.00000285,0.0000003
 3,-0.00000095,-0.00000086,-0.00000036,0.00000534,0.00000216,0.00000669
 ,-0.00000091,0.00000045,-0.00000031,0.00000017,-0.00000122,0.00000139,
 0.00000029,0.00000048,-0.00000069,-0.00000105,0.00000132,-0.00000094,-
 0.00000693,0.00000261,-0.00000009,-0.00000286,0.00000092,0.00000117,0.
 00000832,-0.00000415,-0.00000165,0.00000360,0.00002731,0.00003089,-0.0
 0001243,0.00000002,0.00001053,-0.00000493,-0.00000154,-0.00000229,0.00
 000665,0.00000121,-0.00000322,-0.00081746,-0.00300737,-0.00041893,-0.0
 0162861,0.00364192,-0.00014441,-0.01507725,-0.01434367,0.02997812,0.00
 156009,-0.00189670,0.00110778,0.00014052,-0.00141988,-0.00163052,-0.00
 032162,-0.00013611,0.00091919,-0.00004224,-0.00009697,0.00006665,0.000
 45035,0.00023136,-0.00019858,0.00681855,0.00311423,-0.01303989,-0.0298
 5068,-0.06433208,0.05978270,0.00022701,0.00003322,-0.00013300,0.000022
 54,0.00009063,-0.00019882,0.00053219,-0.00028815,-0.00030785,-0.000036
 63,-0.00003360,-0.00004630,-0.00000338,0.00001128,-0.00000018,0.000005
 65,0.00000871,0.00000733,-0.00000683,-0.00010088,0.00000966,-0.0000291
 2,-0.00000038,0.00000485,-0.00047870,0.00042344,-0.00030557,-0.0006610
 5,0.00025683,0.00046241,0.00312092,-0.00062608,0.00004336,0.00550101,0
 .00312029,-0.01051853,0.03039118,0.07535366,-0.00019308,-0.00000428,0.
 00005795,0.00015616,0.00000482,-0.00007246,-0.00000605,-0.00000414,0.0
 0005186,-0.00000226,0.00000104,-0.00000428,-0.00000025,0.00000599,-0.0
 0000084,0.00000003,-0.00000034,0.00000037,-0.00000309,-0.00000232,0.00
 000068,-0.00000098,-0.00000040,-0.00000085,-0.00000013,-0.00000011,-0.
 00000021,0.00000028,0.00000021,0.00000008,0.00000015,0.00000059,0.0000
 0013,0.00000038,0.00000039,0.00000016,-0.00000318,-0.00000133,-0.00000
 334,0.00000049,-0.00000033,0.00000021,-0.00000002,0.00000088,0.0000002
 7,-0.00000003,0.00000025,-0.00000105,0.00000113,0.00000001,0.00000066,
 0.00000663,-0.00000065,-0.00000118,0.00000290,0.00000122,-0.00000206,-
 0.00000665,0.00000095,0.00000267,0.00000049,0.00000112,-0.00000788,0.0
 0000423,-0.00000077,-0.00000420,0.00000182,-0.00000047,0.00000124,0.00
 000243,0.00000124,0.00000071,-0.00005875,0.00095771,-0.00018102,0.0015
 7229,-0.00035945,0.00091274,-0.00055435,0.00185460,0.00024926,-0.00060
 721,-0.00045613,-0.00014765,-0.00045679,0.00010580,-0.00009637,0.00017
 636,-0.00036144,0.00010381,0.00001135,0.00002092,-0.00001421,-0.000066
 89,-0.00008903,0.00003435,-0.00012432,-0.00068114,0.00002760,0.0979983
 1,0.05900679,-0.24053377,0.00004311,0.00003206,-0.00032872,-0.00012747
 ,-0.00019074,0.00010998,-0.00050342,0.00030152,0.00007882,0.00000549,0
 .00000997,0.00001054,-0.00000120,0.00000117,-0.00000216,-0.00000305,-0
 .00000244,-0.00000090,0.00000453,0.00001335,0.00000760,0.00000700,0.00
 000225,0.00000553,0.00018593,-0.00044006,0.00013126,0.00021192,-0.0001
 0670,0.00082280,-0.00018801,-0.00022229,0.00150011,0.01021888,0.006053
 57,-0.02222582,-0.10770512,-0.06545385,0.25951759\\-0.00003105,-0.0000
 0916,0.00000266,0.00003602,0.00000648,-0.00001175,-0.00000326,0.000005
 95,0.00001207,0.00000095,0.00000297,-0.00000398,-0.00000248,0.00000063
 ,-0.00000352,0.00000320,-0.00000075,0.00000002,-0.00000433,0.00000519,
 -0.00000532,-0.00000361,0.00000701,0.00000322,0.00000147,0.00000279,0.
 00000192,-0.00000140,0.00000301,0.00000368,0.00000131,-0.00000199,0.00
 000593,-0.00000002,0.00000019,0.00000088,0.00000027,-0.00000033,0.0000
 0705,-0.00000047,-0.00000082,-0.00000077,-0.00000032,0.00000072,-0.000
 00104,0.00000042,-0.00000297,-0.00000050,-0.00000115,0.,0.00000007,0.0
 0000550,-0.00000569,0.00001050,-0.00000431,0.00000109,0.00000454,-0.00
 000406,0.00001081,-0.00000349,-0.00000074,0.00000053,0.00000159,0.0000
 0061,0.00000555,-0.00000105,0.00000246,0.00000374,-0.00000266,0.000000
 56,0.00000406,0.00000136,0.00000943,-0.00000781,0.00000467,-0.00000736
 ,-0.00000182,-0.00000495,0.00000485,-0.00001526,-0.00000462,-0.0000019
 2,0.00001901,0.00000668,-0.00000062,-0.00000838,-0.00000384,-0.0000029
 4,-0.00000590,-0.00000028,-0.00000196,-0.00000561,0.00000286,0.0000043
 0,0.00001256,-0.00000075,-0.00000003,-0.00000408,-0.00000384,-0.000001
 82,0.00000089,-0.00000613,0.00000132,-0.00000261,-0.00000259,0.0000007
 7,-0.00000320,-0.00000249,0.00000010,-0.00000317,-0.00000229,-0.000003
 56,-0.00000059,0.00000398,-0.00000095,-0.00000090,0.00000150,-0.000002
 26,-0.00000321,0.00000185,-0.00000056,-0.00000042,0.00000175,-0.000000
 44,-0.00000300,0.00000351,0.00000179,-0.00000065,-0.00000647,0.0000004
 1,-0.00000096,-0.00000321,0.00000349,0.00000201,-0.00000176,-0.0000001
 8,-0.00000231,-0.00000231,0.00000257,-0.00000363,-0.00000266\\\@


 Fatherhood is pretending the present you love most is soap-on-a-rope.
 -- Bill Cosby
 Job cpu time:       2 days 19 hours  7 minutes 27.1 seconds.
 File lengths (MBytes):  RWF=   1683 Int=      0 D2E=      0 Chk=     40 Scr=      1
 Normal termination of Gaussian 09 at Sat Nov 27 04:13:17 2021.
