 Entering Gaussian System, Link 0=g09
 Input=reag_NHC23_et.gjf
 Output=reag_NHC23_et.log
 Initial command:
 /usr/local/gqt/g09/l1.exe "/usr/local/gqt/lixogaussian/Gau-29791.inp" -scrdir="/usr/local/gqt/lixogaussian/"
 Entering Link 1 = /usr/local/gqt/g09/l1.exe PID=     29793.
  
 Copyright (c) 1988,1990,1992,1993,1995,1998,2003,2009,2013,
            Gaussian, Inc.  All Rights Reserved.
  
 This is part of the Gaussian(R) 09 program.  It is based on
 the Gaussian(R) 03 system (copyright 2003, Gaussian, Inc.),
 the Gaussian(R) 98 system (copyright 1998, Gaussian, Inc.),
 the Gaussian(R) 94 system (copyright 1995, Gaussian, Inc.),
 the Gaussian 92(TM) system (copyright 1992, Gaussian, Inc.),
 the Gaussian 90(TM) system (copyright 1990, Gaussian, Inc.),
 the Gaussian 88(TM) system (copyright 1988, Gaussian, Inc.),
 the Gaussian 86(TM) system (copyright 1986, Carnegie Mellon
 University), and the Gaussian 82(TM) system (copyright 1983,
 Carnegie Mellon University). Gaussian is a federally registered
 trademark of Gaussian, Inc.
  
 This software contains proprietary and confidential information,
 including trade secrets, belonging to Gaussian, Inc.
  
 This software is provided under written license and may be
 used, copied, transmitted, or stored only in accord with that
 written license.
  
 The following legend is applicable only to US Government
 contracts under FAR:
  
                    RESTRICTED RIGHTS LEGEND
  
 Use, reproduction and disclosure by the US Government is
 subject to restrictions as set forth in subparagraphs (a)
 and (c) of the Commercial Computer Software - Restricted
 Rights clause in FAR 52.227-19.
  
 Gaussian, Inc.
 340 Quinnipiac St., Bldg. 40, Wallingford CT 06492
  
  
 ---------------------------------------------------------------
 Warning -- This program may not be used in any manner that
 competes with the business of Gaussian, Inc. or will provide
 assistance to any competitor of Gaussian, Inc.  The licensee
 of this program is prohibited from giving any competitor of
 Gaussian, Inc. access to this program.  By using this program,
 the user acknowledges that Gaussian, Inc. is engaged in the
 business of creating and licensing software in the field of
 computational chemistry and represents and warrants to the
 licensee that it is not a competitor of Gaussian, Inc. and that
 it will not use this program in any manner prohibited above.
 ---------------------------------------------------------------
  

 Cite this work as:
 Gaussian 09, Revision D.01,
 M. J. Frisch, G. W. Trucks, H. B. Schlegel, G. E. Scuseria, 
 M. A. Robb, J. R. Cheeseman, G. Scalmani, V. Barone, B. Mennucci, 
 G. A. Petersson, H. Nakatsuji, M. Caricato, X. Li, H. P. Hratchian, 
 A. F. Izmaylov, J. Bloino, G. Zheng, J. L. Sonnenberg, M. Hada, 
 M. Ehara, K. Toyota, R. Fukuda, J. Hasegawa, M. Ishida, T. Nakajima, 
 Y. Honda, O. Kitao, H. Nakai, T. Vreven, J. A. Montgomery, Jr., 
 J. E. Peralta, F. Ogliaro, M. Bearpark, J. J. Heyd, E. Brothers, 
 K. N. Kudin, V. N. Staroverov, T. Keith, R. Kobayashi, J. Normand, 
 K. Raghavachari, A. Rendell, J. C. Burant, S. S. Iyengar, J. Tomasi, 
 M. Cossi, N. Rega, J. M. Millam, M. Klene, J. E. Knox, J. B. Cross, 
 V. Bakken, C. Adamo, J. Jaramillo, R. Gomperts, R. E. Stratmann, 
 O. Yazyev, A. J. Austin, R. Cammi, C. Pomelli, J. W. Ochterski, 
 R. L. Martin, K. Morokuma, V. G. Zakrzewski, G. A. Voth, 
 P. Salvador, J. J. Dannenberg, S. Dapprich, A. D. Daniels, 
 O. Farkas, J. B. Foresman, J. V. Ortiz, J. Cioslowski, 
 and D. J. Fox, Gaussian, Inc., Wallingford CT, 2013.
 
 ******************************************
 Gaussian 09:  ES64L-G09RevD.01 24-Apr-2013
                25-Nov-2021 
 ******************************************
 %nprocshared=16
 Will use up to   16 processors via shared memory.
 %mem=50GB
 %chk=reag_NHC23_et.chk
 ------------------------------------------------------------
 #p opt freq n12sx/6-311+g(d,p) scrf=(iefpcm,solvent=ethanol)
 ------------------------------------------------------------
 1/14=-1,18=20,19=15,26=3,38=1/1,3;
 2/9=110,12=2,17=6,18=5,40=1/2;
 3/5=4,6=6,7=111,11=2,16=1,25=1,30=1,70=2201,71=1,72=4,74=-69/1,2,3;
 4//1;
 5/5=2,38=5,53=4/2;
 6/7=2,8=2,9=2,10=2,28=1/1;
 7//1,2,3,16;
 1/14=-1,18=20,19=15,26=3/3(2);
 2/9=110/2;
 99//99;
 2/9=110/2;
 3/5=4,6=6,7=111,11=2,16=1,25=1,30=1,70=2205,71=1,72=4,74=-69/1,2,3;
 4/5=5,16=3,69=1/1;
 5/5=2,38=5,53=4/2;
 7//1,2,3,16;
 1/14=-1,18=20,19=15,26=3/3(-5);
 2/9=110/2;
 6/7=2,8=2,9=2,10=2,19=2,28=1/1;
 99/9=1/99;
 Leave Link    1 at Thu Nov 25 15:17:08 2021, MaxMem=  6710886400 cpu:         0.7
 (Enter /usr/local/gqt/g09/l101.exe)
 -----
 TITLE
 -----
 Symbolic Z-matrix:
 Charge =  0 Multiplicity = 1
 1                    -0.37611   0.3208    0.52245 
 8                    -1.34694   0.44768   0.69052 
 6                    -1.55721   0.66336   2.06538 
 1                    -1.1507   -0.16765   2.65162 
 1                    -1.03804   1.56948   2.39665 
 6                    -6.14386   0.77042  -0.5488 
 6                    -3.84375  -0.8129   -1.26472 
 6                    -5.02634   1.34402  -1.40374 
 1                    -6.48255   1.46246   0.21777 
 1                    -7.01598   0.55572  -1.17087 
 6                    -4.39464   0.22405  -2.20794 
 1                    -3.52774  -1.7123   -1.78378 
 1                    -3.0042   -0.41906  -0.6933 
 1                    -5.42273   2.12324  -2.05081 
 1                    -4.26984   1.80868  -0.77037 
 1                    -3.57537   0.58976  -2.82462 
 1                    -5.13126  -0.22269  -2.87744 
 8                    -4.8192   -1.27338  -0.29999 
 8                    -6.50741  -0.95618   1.04573 
 6                    -5.83108  -0.53148   0.13849 
 6                    -3.03571   0.7987    2.34108 
 1                    -3.21477   0.97079   3.40129 
 1                    -3.45544   1.63641   1.78558 
 1                    -3.56591  -0.10598   2.0484 
 6                     3.68379  -0.94961  -0.17227 
 6                     2.94691  -2.19473   0.34088 
 6                     1.45409  -1.84407   0.3486 
 6                     1.40273  -0.33988   0.2663 
 7                     2.60154   0.10256   0.00952 
 6                     0.75841  -2.33595   1.61495 
 6                     0.7133   -2.39808  -0.87389 
 6                     4.93195  -0.72981   0.68015 
 6                     4.06226  -1.08525  -1.64542 
 6                     2.76889   1.57556  -0.27918 
 6                     2.17138   1.85136  -1.65858 
 6                     4.21505   2.05831  -0.25183 
 6                     2.00526   2.36699   0.77968 
 1                     3.18065  -3.06725  -0.26569 
 1                     3.27593  -2.41079   1.35609 
 1                    -0.29247  -2.05157   1.6152 
 1                     0.81808  -3.42272   1.68241 
 1                     1.22305  -1.91791   2.50705 
 1                     1.16727  -2.07515  -1.80858 
 1                     0.72879  -3.48776  -0.85116 
 1                    -0.32475  -2.07056  -0.87527 
 1                     5.62175  -0.00495   0.26448 
 1                     5.46203  -1.67859   0.74902 
 1                     4.66464  -0.42581   1.69027 
 1                     3.19341  -1.3037   -2.26107 
 1                     4.53516  -0.18715  -2.03316 
 1                     4.77131  -1.90377  -1.75797 
 1                     2.22082   2.91616  -1.87952 
 1                     2.71046   1.31852  -2.43902 
 1                     1.13081   1.53702  -1.67911 
 1                     4.66546   1.93859   0.72911 
 1                     4.20997   3.12158  -0.48189 
 1                     4.84388   1.57477  -0.99247 
 1                     0.95431   2.10292   0.77588 
 1                     2.40792   2.167     1.77143 
 1                     2.11027   3.43124   0.57631 
 
 Add virtual bond connecting atoms C28        and H1         Dist= 3.62D+00.
 Add virtual bond connecting atoms H13        and O2         Dist= 4.40D+00.
 NAtoms=     60 NQM=       60 NQMF=       0 NMMI=      0 NMMIF=      0
                NMic=       0 NMicF=      0.
                    Isotopes and Nuclear Properties:
 (Nuclear quadrupole moments (NQMom) in fm**2, nuclear magnetic moments (NMagM)
  in nuclear magnetons)

  Atom         1           2           3           4           5           6           7           8           9          10
 IAtWgt=           1          16          12           1           1          12          12          12           1           1
 AtmWgt=   1.0078250  15.9949146  12.0000000   1.0078250   1.0078250  12.0000000  12.0000000  12.0000000   1.0078250   1.0078250
 NucSpn=           1           0           0           1           1           0           0           0           1           1
 AtZEff=   0.0000000   0.0000000   0.0000000   0.0000000   0.0000000   0.0000000   0.0000000   0.0000000   0.0000000   0.0000000
 NQMom=    0.0000000   0.0000000   0.0000000   0.0000000   0.0000000   0.0000000   0.0000000   0.0000000   0.0000000   0.0000000
 NMagM=    2.7928460   0.0000000   0.0000000   2.7928460   2.7928460   0.0000000   0.0000000   0.0000000   2.7928460   2.7928460
 AtZNuc=   1.0000000   8.0000000   6.0000000   1.0000000   1.0000000   6.0000000   6.0000000   6.0000000   1.0000000   1.0000000

  Atom        11          12          13          14          15          16          17          18          19          20
 IAtWgt=          12           1           1           1           1           1           1          16          16          12
 AtmWgt=  12.0000000   1.0078250   1.0078250   1.0078250   1.0078250   1.0078250   1.0078250  15.9949146  15.9949146  12.0000000
 NucSpn=           0           1           1           1           1           1           1           0           0           0
 AtZEff=   0.0000000   0.0000000   0.0000000   0.0000000   0.0000000   0.0000000   0.0000000   0.0000000   0.0000000   0.0000000
 NQMom=    0.0000000   0.0000000   0.0000000   0.0000000   0.0000000   0.0000000   0.0000000   0.0000000   0.0000000   0.0000000
 NMagM=    0.0000000   2.7928460   2.7928460   2.7928460   2.7928460   2.7928460   2.7928460   0.0000000   0.0000000   0.0000000
 AtZNuc=   6.0000000   1.0000000   1.0000000   1.0000000   1.0000000   1.0000000   1.0000000   8.0000000   8.0000000   6.0000000

  Atom        21          22          23          24          25          26          27          28          29          30
 IAtWgt=          12           1           1           1          12          12          12          12          14          12
 AtmWgt=  12.0000000   1.0078250   1.0078250   1.0078250  12.0000000  12.0000000  12.0000000  12.0000000  14.0030740  12.0000000
 NucSpn=           0           1           1           1           0           0           0           0           2           0
 AtZEff=   0.0000000   0.0000000   0.0000000   0.0000000   0.0000000   0.0000000   0.0000000   0.0000000   0.0000000   0.0000000
 NQMom=    0.0000000   0.0000000   0.0000000   0.0000000   0.0000000   0.0000000   0.0000000   0.0000000   2.0440000   0.0000000
 NMagM=    0.0000000   2.7928460   2.7928460   2.7928460   0.0000000   0.0000000   0.0000000   0.0000000   0.4037610   0.0000000
 AtZNuc=   6.0000000   1.0000000   1.0000000   1.0000000   6.0000000   6.0000000   6.0000000   6.0000000   7.0000000   6.0000000

  Atom        31          32          33          34          35          36          37          38          39          40
 IAtWgt=          12          12          12          12          12          12          12           1           1           1
 AtmWgt=  12.0000000  12.0000000  12.0000000  12.0000000  12.0000000  12.0000000  12.0000000   1.0078250   1.0078250   1.0078250
 NucSpn=           0           0           0           0           0           0           0           1           1           1
 AtZEff=   0.0000000   0.0000000   0.0000000   0.0000000   0.0000000   0.0000000   0.0000000   0.0000000   0.0000000   0.0000000
 NQMom=    0.0000000   0.0000000   0.0000000   0.0000000   0.0000000   0.0000000   0.0000000   0.0000000   0.0000000   0.0000000
 NMagM=    0.0000000   0.0000000   0.0000000   0.0000000   0.0000000   0.0000000   0.0000000   2.7928460   2.7928460   2.7928460
 AtZNuc=   6.0000000   6.0000000   6.0000000   6.0000000   6.0000000   6.0000000   6.0000000   1.0000000   1.0000000   1.0000000

  Atom        41          42          43          44          45          46          47          48          49          50
 IAtWgt=           1           1           1           1           1           1           1           1           1           1
 AtmWgt=   1.0078250   1.0078250   1.0078250   1.0078250   1.0078250   1.0078250   1.0078250   1.0078250   1.0078250   1.0078250
 NucSpn=           1           1           1           1           1           1           1           1           1           1
 AtZEff=   0.0000000   0.0000000   0.0000000   0.0000000   0.0000000   0.0000000   0.0000000   0.0000000   0.0000000   0.0000000
 NQMom=    0.0000000   0.0000000   0.0000000   0.0000000   0.0000000   0.0000000   0.0000000   0.0000000   0.0000000   0.0000000
 NMagM=    2.7928460   2.7928460   2.7928460   2.7928460   2.7928460   2.7928460   2.7928460   2.7928460   2.7928460   2.7928460
 AtZNuc=   1.0000000   1.0000000   1.0000000   1.0000000   1.0000000   1.0000000   1.0000000   1.0000000   1.0000000   1.0000000

  Atom        51          52          53          54          55          56          57          58          59          60
 IAtWgt=           1           1           1           1           1           1           1           1           1           1
 AtmWgt=   1.0078250   1.0078250   1.0078250   1.0078250   1.0078250   1.0078250   1.0078250   1.0078250   1.0078250   1.0078250
 NucSpn=           1           1           1           1           1           1           1           1           1           1
 AtZEff=   0.0000000   0.0000000   0.0000000   0.0000000   0.0000000   0.0000000   0.0000000   0.0000000   0.0000000   0.0000000
 NQMom=    0.0000000   0.0000000   0.0000000   0.0000000   0.0000000   0.0000000   0.0000000   0.0000000   0.0000000   0.0000000
 NMagM=    2.7928460   2.7928460   2.7928460   2.7928460   2.7928460   2.7928460   2.7928460   2.7928460   2.7928460   2.7928460
 AtZNuc=   1.0000000   1.0000000   1.0000000   1.0000000   1.0000000   1.0000000   1.0000000   1.0000000   1.0000000   1.0000000
 Leave Link  101 at Thu Nov 25 15:17:08 2021, MaxMem=  6710886400 cpu:         7.1
 (Enter /usr/local/gqt/g09/l103.exe)

 GradGradGradGradGradGradGradGradGradGradGradGradGradGradGradGradGradGrad
 Berny optimization.
 Initialization pass.
                           ----------------------------
                           !    Initial Parameters    !
                           ! (Angstroms and Degrees)  !
 --------------------------                            --------------------------
 ! Name  Definition              Value          Derivative Info.                !
 --------------------------------------------------------------------------------
 ! R1    R(1,2)                  0.9934         estimate D2E/DX2                !
 ! R2    R(1,28)                 1.9148         estimate D2E/DX2                !
 ! R3    R(2,3)                  1.4075         estimate D2E/DX2                !
 ! R4    R(2,13)                 2.3265         estimate D2E/DX2                !
 ! R5    R(3,4)                  1.0952         estimate D2E/DX2                !
 ! R6    R(3,5)                  1.0956         estimate D2E/DX2                !
 ! R7    R(3,21)                 1.5101         estimate D2E/DX2                !
 ! R8    R(6,8)                  1.5195         estimate D2E/DX2                !
 ! R9    R(6,9)                  1.0869         estimate D2E/DX2                !
 ! R10   R(6,10)                 1.0925         estimate D2E/DX2                !
 ! R11   R(6,20)                 1.505          estimate D2E/DX2                !
 ! R12   R(7,11)                 1.5061         estimate D2E/DX2                !
 ! R13   R(7,12)                 1.0855         estimate D2E/DX2                !
 ! R14   R(7,13)                 1.0893         estimate D2E/DX2                !
 ! R15   R(7,18)                 1.4472         estimate D2E/DX2                !
 ! R16   R(8,11)                 1.5166         estimate D2E/DX2                !
 ! R17   R(8,14)                 1.0877         estimate D2E/DX2                !
 ! R18   R(8,15)                 1.0906         estimate D2E/DX2                !
 ! R19   R(11,16)                1.0887         estimate D2E/DX2                !
 ! R20   R(11,17)                1.0911         estimate D2E/DX2                !
 ! R21   R(18,20)                1.3291         estimate D2E/DX2                !
 ! R22   R(19,20)                1.2087         estimate D2E/DX2                !
 ! R23   R(21,22)                1.0889         estimate D2E/DX2                !
 ! R24   R(21,23)                1.0893         estimate D2E/DX2                !
 ! R25   R(21,24)                1.0887         estimate D2E/DX2                !
 ! R26   R(25,26)                1.5351         estimate D2E/DX2                !
 ! R27   R(25,29)                1.5203         estimate D2E/DX2                !
 ! R28   R(25,32)                1.5274         estimate D2E/DX2                !
 ! R29   R(25,33)                1.527          estimate D2E/DX2                !
 ! R30   R(26,27)                1.5335         estimate D2E/DX2                !
 ! R31   R(26,38)                1.0881         estimate D2E/DX2                !
 ! R32   R(26,39)                1.0889         estimate D2E/DX2                !
 ! R33   R(27,28)                1.5073         estimate D2E/DX2                !
 ! R34   R(27,30)                1.5263         estimate D2E/DX2                !
 ! R35   R(27,31)                1.533          estimate D2E/DX2                !
 ! R36   R(28,29)                1.3034         estimate D2E/DX2                !
 ! R37   R(29,34)                1.5103         estimate D2E/DX2                !
 ! R38   R(30,40)                1.0887         estimate D2E/DX2                !
 ! R39   R(30,41)                1.0905         estimate D2E/DX2                !
 ! R40   R(30,42)                1.0893         estimate D2E/DX2                !
 ! R41   R(31,43)                1.0881         estimate D2E/DX2                !
 ! R42   R(31,44)                1.09           estimate D2E/DX2                !
 ! R43   R(31,45)                1.0885         estimate D2E/DX2                !
 ! R44   R(32,46)                1.0835         estimate D2E/DX2                !
 ! R45   R(32,47)                1.089          estimate D2E/DX2                !
 ! R46   R(32,48)                1.0882         estimate D2E/DX2                !
 ! R47   R(33,49)                1.087          estimate D2E/DX2                !
 ! R48   R(33,50)                1.0865         estimate D2E/DX2                !
 ! R49   R(33,51)                1.0888         estimate D2E/DX2                !
 ! R50   R(34,35)                1.5283         estimate D2E/DX2                !
 ! R51   R(34,36)                1.5248         estimate D2E/DX2                !
 ! R52   R(34,37)                1.5267         estimate D2E/DX2                !
 ! R53   R(35,52)                1.0886         estimate D2E/DX2                !
 ! R54   R(35,53)                1.0879         estimate D2E/DX2                !
 ! R55   R(35,54)                1.0872         estimate D2E/DX2                !
 ! R56   R(36,55)                1.086          estimate D2E/DX2                !
 ! R57   R(36,56)                1.0879         estimate D2E/DX2                !
 ! R58   R(36,57)                1.0853         estimate D2E/DX2                !
 ! R59   R(37,58)                1.0836         estimate D2E/DX2                !
 ! R60   R(37,59)                1.0889         estimate D2E/DX2                !
 ! R61   R(37,60)                1.0886         estimate D2E/DX2                !
 ! A1    A(1,2,3)              109.3192         estimate D2E/DX2                !
 ! A2    A(1,2,13)             123.2253         estimate D2E/DX2                !
 ! A3    A(3,2,13)             122.12           estimate D2E/DX2                !
 ! A4    A(2,3,4)              110.5572         estimate D2E/DX2                !
 ! A5    A(2,3,5)              110.5673         estimate D2E/DX2                !
 ! A6    A(2,3,21)             109.7759         estimate D2E/DX2                !
 ! A7    A(4,3,5)              106.8467         estimate D2E/DX2                !
 ! A8    A(4,3,21)             109.4928         estimate D2E/DX2                !
 ! A9    A(5,3,21)             109.5506         estimate D2E/DX2                !
 ! A10   A(8,6,9)              112.6849         estimate D2E/DX2                !
 ! A11   A(8,6,10)             109.9318         estimate D2E/DX2                !
 ! A12   A(8,6,20)             115.5084         estimate D2E/DX2                !
 ! A13   A(9,6,10)             106.1388         estimate D2E/DX2                !
 ! A14   A(9,6,20)             107.066          estimate D2E/DX2                !
 ! A15   A(10,6,20)            104.8276         estimate D2E/DX2                !
 ! A16   A(11,7,12)            112.1782         estimate D2E/DX2                !
 ! A17   A(11,7,13)            111.1929         estimate D2E/DX2                !
 ! A18   A(11,7,18)            112.9556         estimate D2E/DX2                !
 ! A19   A(12,7,13)            109.0298         estimate D2E/DX2                !
 ! A20   A(12,7,18)            104.5587         estimate D2E/DX2                !
 ! A21   A(13,7,18)            106.5508         estimate D2E/DX2                !
 ! A22   A(6,8,11)             109.0215         estimate D2E/DX2                !
 ! A23   A(6,8,14)             109.7032         estimate D2E/DX2                !
 ! A24   A(6,8,15)             110.1354         estimate D2E/DX2                !
 ! A25   A(11,8,14)            111.4316         estimate D2E/DX2                !
 ! A26   A(11,8,15)            109.491          estimate D2E/DX2                !
 ! A27   A(14,8,15)            107.0418         estimate D2E/DX2                !
 ! A28   A(7,11,8)             109.19           estimate D2E/DX2                !
 ! A29   A(7,11,16)            108.1054         estimate D2E/DX2                !
 ! A30   A(7,11,17)            110.446          estimate D2E/DX2                !
 ! A31   A(8,11,16)            111.4537         estimate D2E/DX2                !
 ! A32   A(8,11,17)            110.2755         estimate D2E/DX2                !
 ! A33   A(16,11,17)           107.3384         estimate D2E/DX2                !
 ! A34   A(7,18,20)            123.7432         estimate D2E/DX2                !
 ! A35   A(6,20,18)            119.3678         estimate D2E/DX2                !
 ! A36   A(6,20,19)            122.035          estimate D2E/DX2                !
 ! A37   A(18,20,19)           118.5218         estimate D2E/DX2                !
 ! A38   A(3,21,22)            110.6665         estimate D2E/DX2                !
 ! A39   A(3,21,23)            110.6772         estimate D2E/DX2                !
 ! A40   A(3,21,24)            110.6881         estimate D2E/DX2                !
 ! A41   A(22,21,23)           108.1573         estimate D2E/DX2                !
 ! A42   A(22,21,24)           108.2394         estimate D2E/DX2                !
 ! A43   A(23,21,24)           108.3192         estimate D2E/DX2                !
 ! A44   A(26,25,29)           100.3498         estimate D2E/DX2                !
 ! A45   A(26,25,32)           108.8103         estimate D2E/DX2                !
 ! A46   A(26,25,33)           111.6789         estimate D2E/DX2                !
 ! A47   A(29,25,32)           114.5444         estimate D2E/DX2                !
 ! A48   A(29,25,33)           110.6865         estimate D2E/DX2                !
 ! A49   A(32,25,33)           110.4048         estimate D2E/DX2                !
 ! A50   A(25,26,27)           106.4693         estimate D2E/DX2                !
 ! A51   A(25,26,38)           111.1584         estimate D2E/DX2                !
 ! A52   A(25,26,39)           109.1208         estimate D2E/DX2                !
 ! A53   A(27,26,38)           113.2856         estimate D2E/DX2                !
 ! A54   A(27,26,39)           109.5631         estimate D2E/DX2                !
 ! A55   A(38,26,39)           107.2017         estimate D2E/DX2                !
 ! A56   A(26,27,28)           105.1348         estimate D2E/DX2                !
 ! A57   A(26,27,30)           111.9751         estimate D2E/DX2                !
 ! A58   A(26,27,31)           112.5666         estimate D2E/DX2                !
 ! A59   A(28,27,30)           110.5716         estimate D2E/DX2                !
 ! A60   A(28,27,31)           107.4954         estimate D2E/DX2                !
 ! A61   A(30,27,31)           108.9598         estimate D2E/DX2                !
 ! A62   A(1,28,27)            111.6339         estimate D2E/DX2                !
 ! A63   A(1,28,29)            139.791          estimate D2E/DX2                !
 ! A64   A(27,28,29)           108.5519         estimate D2E/DX2                !
 ! A65   A(25,29,28)           116.3192         estimate D2E/DX2                !
 ! A66   A(25,29,34)           124.9763         estimate D2E/DX2                !
 ! A67   A(28,29,34)           118.0752         estimate D2E/DX2                !
 ! A68   A(27,30,40)           110.8541         estimate D2E/DX2                !
 ! A69   A(27,30,41)           110.338          estimate D2E/DX2                !
 ! A70   A(27,30,42)           111.1863         estimate D2E/DX2                !
 ! A71   A(40,30,41)           108.2482         estimate D2E/DX2                !
 ! A72   A(40,30,42)           108.1382         estimate D2E/DX2                !
 ! A73   A(41,30,42)           107.9664         estimate D2E/DX2                !
 ! A74   A(27,31,43)           112.0942         estimate D2E/DX2                !
 ! A75   A(27,31,44)           109.7411         estimate D2E/DX2                !
 ! A76   A(27,31,45)           110.6767         estimate D2E/DX2                !
 ! A77   A(43,31,44)           107.9788         estimate D2E/DX2                !
 ! A78   A(43,31,45)           107.908          estimate D2E/DX2                !
 ! A79   A(44,31,45)           108.3236         estimate D2E/DX2                !
 ! A80   A(25,32,46)           113.7297         estimate D2E/DX2                !
 ! A81   A(25,32,47)           107.9204         estimate D2E/DX2                !
 ! A82   A(25,32,48)           110.9473         estimate D2E/DX2                !
 ! A83   A(46,32,47)           107.2912         estimate D2E/DX2                !
 ! A84   A(46,32,48)           109.0017         estimate D2E/DX2                !
 ! A85   A(47,32,48)           107.7128         estimate D2E/DX2                !
 ! A86   A(25,33,49)           111.477          estimate D2E/DX2                !
 ! A87   A(25,33,50)           112.2549         estimate D2E/DX2                !
 ! A88   A(25,33,51)           109.1425         estimate D2E/DX2                !
 ! A89   A(49,33,50)           108.1724         estimate D2E/DX2                !
 ! A90   A(49,33,51)           108.1131         estimate D2E/DX2                !
 ! A91   A(50,33,51)           107.5217         estimate D2E/DX2                !
 ! A92   A(29,34,35)           107.7702         estimate D2E/DX2                !
 ! A93   A(29,34,36)           114.2312         estimate D2E/DX2                !
 ! A94   A(29,34,37)           108.5175         estimate D2E/DX2                !
 ! A95   A(35,34,36)           109.2588         estimate D2E/DX2                !
 ! A96   A(35,34,37)           109.6872         estimate D2E/DX2                !
 ! A97   A(36,34,37)           107.3269         estimate D2E/DX2                !
 ! A98   A(34,35,52)           109.9948         estimate D2E/DX2                !
 ! A99   A(34,35,53)           111.4293         estimate D2E/DX2                !
 ! A100  A(34,35,54)           109.8196         estimate D2E/DX2                !
 ! A101  A(52,35,53)           108.1174         estimate D2E/DX2                !
 ! A102  A(52,35,54)           108.8099         estimate D2E/DX2                !
 ! A103  A(53,35,54)           108.6081         estimate D2E/DX2                !
 ! A104  A(34,36,55)           112.0017         estimate D2E/DX2                !
 ! A105  A(34,36,56)           107.5301         estimate D2E/DX2                !
 ! A106  A(34,36,57)           113.3428         estimate D2E/DX2                !
 ! A107  A(55,36,56)           107.4988         estimate D2E/DX2                !
 ! A108  A(55,36,57)           109.086          estimate D2E/DX2                !
 ! A109  A(56,36,57)           107.0892         estimate D2E/DX2                !
 ! A110  A(34,37,58)           110.8769         estimate D2E/DX2                !
 ! A111  A(34,37,59)           110.5806         estimate D2E/DX2                !
 ! A112  A(34,37,60)           109.2077         estimate D2E/DX2                !
 ! A113  A(58,37,59)           108.4859         estimate D2E/DX2                !
 ! A114  A(58,37,60)           109.3383         estimate D2E/DX2                !
 ! A115  A(59,37,60)           108.3021         estimate D2E/DX2                !
 ! A116  L(2,1,28,40,-1)       167.7063         estimate D2E/DX2                !
 ! A117  L(2,13,7,9,-1)        175.6776         estimate D2E/DX2                !
 ! A118  L(2,1,28,40,-2)       175.8746         estimate D2E/DX2                !
 ! A119  L(2,13,7,9,-2)        183.2122         estimate D2E/DX2                !
 ! D1    D(1,2,7,11)           -99.5938         estimate D2E/DX2                !
 ! D2    D(1,2,7,12)            26.9466         estimate D2E/DX2                !
 ! D3    D(1,2,7,18)           138.6817         estimate D2E/DX2                !
 ! D4    D(3,2,7,11)           109.188          estimate D2E/DX2                !
 ! D5    D(3,2,7,12)          -124.2716         estimate D2E/DX2                !
 ! D6    D(3,2,7,18)           -12.5365         estimate D2E/DX2                !
 ! D7    D(3,2,28,27)           90.4944         estimate D2E/DX2                !
 ! D8    D(3,2,28,29)          -91.2972         estimate D2E/DX2                !
 ! D9    D(13,2,28,27)         -56.5149         estimate D2E/DX2                !
 ! D10   D(13,2,28,29)         121.6935         estimate D2E/DX2                !
 ! D11   D(1,2,3,4)            -56.6894         estimate D2E/DX2                !
 ! D12   D(1,2,3,5)             61.4301         estimate D2E/DX2                !
 ! D13   D(1,2,3,21)          -177.5903         estimate D2E/DX2                !
 ! D14   D(13,2,3,4)            98.221          estimate D2E/DX2                !
 ! D15   D(13,2,3,5)          -143.6595         estimate D2E/DX2                !
 ! D16   D(13,2,3,21)          -22.6799         estimate D2E/DX2                !
 ! D17   D(2,3,21,22)         -179.74           estimate D2E/DX2                !
 ! D18   D(2,3,21,23)          -59.849          estimate D2E/DX2                !
 ! D19   D(2,3,21,24)           60.259          estimate D2E/DX2                !
 ! D20   D(4,3,21,22)           58.719          estimate D2E/DX2                !
 ! D21   D(4,3,21,23)          178.61           estimate D2E/DX2                !
 ! D22   D(4,3,21,24)          -61.282          estimate D2E/DX2                !
 ! D23   D(5,3,21,22)          -58.1494         estimate D2E/DX2                !
 ! D24   D(5,3,21,23)           61.7416         estimate D2E/DX2                !
 ! D25   D(5,3,21,24)         -178.1504         estimate D2E/DX2                !
 ! D26   D(9,6,8,11)           166.5411         estimate D2E/DX2                !
 ! D27   D(9,6,8,14)           -71.1835         estimate D2E/DX2                !
 ! D28   D(9,6,8,15)            46.3884         estimate D2E/DX2                !
 ! D29   D(10,6,8,11)          -75.2918         estimate D2E/DX2                !
 ! D30   D(10,6,8,14)           46.9836         estimate D2E/DX2                !
 ! D31   D(10,6,8,15)          164.5555         estimate D2E/DX2                !
 ! D32   D(20,6,8,11)           43.0445         estimate D2E/DX2                !
 ! D33   D(20,6,8,14)          165.3199         estimate D2E/DX2                !
 ! D34   D(20,6,8,15)          -77.1082         estimate D2E/DX2                !
 ! D35   D(8,6,20,18)          -18.4715         estimate D2E/DX2                !
 ! D36   D(8,6,20,19)          164.7348         estimate D2E/DX2                !
 ! D37   D(9,6,20,18)         -144.8761         estimate D2E/DX2                !
 ! D38   D(9,6,20,19)           38.3302         estimate D2E/DX2                !
 ! D39   D(10,6,20,18)         102.6629         estimate D2E/DX2                !
 ! D40   D(10,6,20,19)         -74.1308         estimate D2E/DX2                !
 ! D41   D(12,7,11,8)          170.5304         estimate D2E/DX2                !
 ! D42   D(12,7,11,16)         -68.0544         estimate D2E/DX2                !
 ! D43   D(12,7,11,17)          49.1078         estimate D2E/DX2                !
 ! D44   D(13,7,11,8)          -67.0775         estimate D2E/DX2                !
 ! D45   D(13,7,11,16)          54.3377         estimate D2E/DX2                !
 ! D46   D(13,7,11,17)         171.5            estimate D2E/DX2                !
 ! D47   D(18,7,11,8)           52.6604         estimate D2E/DX2                !
 ! D48   D(18,7,11,16)         174.0756         estimate D2E/DX2                !
 ! D49   D(18,7,11,17)         -68.7621         estimate D2E/DX2                !
 ! D50   D(11,7,18,20)         -28.5133         estimate D2E/DX2                !
 ! D51   D(12,7,18,20)        -150.7595         estimate D2E/DX2                !
 ! D52   D(13,7,18,20)          93.8606         estimate D2E/DX2                !
 ! D53   D(6,8,11,7)           -59.7058         estimate D2E/DX2                !
 ! D54   D(6,8,11,16)         -179.0673         estimate D2E/DX2                !
 ! D55   D(6,8,11,17)           61.8201         estimate D2E/DX2                !
 ! D56   D(14,8,11,7)          179.0668         estimate D2E/DX2                !
 ! D57   D(14,8,11,16)          59.7053         estimate D2E/DX2                !
 ! D58   D(14,8,11,17)         -59.4073         estimate D2E/DX2                !
 ! D59   D(15,8,11,7)           60.8434         estimate D2E/DX2                !
 ! D60   D(15,8,11,16)         -58.5181         estimate D2E/DX2                !
 ! D61   D(15,8,11,17)        -177.6307         estimate D2E/DX2                !
 ! D62   D(7,18,20,6)           10.7302         estimate D2E/DX2                !
 ! D63   D(7,18,20,19)        -172.3632         estimate D2E/DX2                !
 ! D64   D(29,25,26,27)         16.8688         estimate D2E/DX2                !
 ! D65   D(29,25,26,38)        140.6793         estimate D2E/DX2                !
 ! D66   D(29,25,26,39)       -101.2987         estimate D2E/DX2                !
 ! D67   D(32,25,26,27)        137.4196         estimate D2E/DX2                !
 ! D68   D(32,25,26,38)        -98.77           estimate D2E/DX2                !
 ! D69   D(32,25,26,39)         19.2521         estimate D2E/DX2                !
 ! D70   D(33,25,26,27)       -100.4556         estimate D2E/DX2                !
 ! D71   D(33,25,26,38)         23.3548         estimate D2E/DX2                !
 ! D72   D(33,25,26,39)        141.3769         estimate D2E/DX2                !
 ! D73   D(26,25,29,28)        -12.0494         estimate D2E/DX2                !
 ! D74   D(26,25,29,34)        177.2548         estimate D2E/DX2                !
 ! D75   D(32,25,29,28)       -128.3914         estimate D2E/DX2                !
 ! D76   D(32,25,29,34)         60.9128         estimate D2E/DX2                !
 ! D77   D(33,25,29,28)        106.0078         estimate D2E/DX2                !
 ! D78   D(33,25,29,34)        -64.688          estimate D2E/DX2                !
 ! D79   D(26,25,32,46)        167.6994         estimate D2E/DX2                !
 ! D80   D(26,25,32,47)         48.7923         estimate D2E/DX2                !
 ! D81   D(26,25,32,48)        -68.9945         estimate D2E/DX2                !
 ! D82   D(29,25,32,46)        -80.9424         estimate D2E/DX2                !
 ! D83   D(29,25,32,47)        160.1506         estimate D2E/DX2                !
 ! D84   D(29,25,32,48)         42.3638         estimate D2E/DX2                !
 ! D85   D(33,25,32,46)         44.8055         estimate D2E/DX2                !
 ! D86   D(33,25,32,47)        -74.1015         estimate D2E/DX2                !
 ! D87   D(33,25,32,48)        168.1117         estimate D2E/DX2                !
 ! D88   D(26,25,33,49)         55.2745         estimate D2E/DX2                !
 ! D89   D(26,25,33,50)        176.8167         estimate D2E/DX2                !
 ! D90   D(26,25,33,51)        -64.0803         estimate D2E/DX2                !
 ! D91   D(29,25,33,49)        -55.6267         estimate D2E/DX2                !
 ! D92   D(29,25,33,50)         65.9154         estimate D2E/DX2                !
 ! D93   D(29,25,33,51)       -174.9816         estimate D2E/DX2                !
 ! D94   D(32,25,33,49)        176.4783         estimate D2E/DX2                !
 ! D95   D(32,25,33,50)        -61.9796         estimate D2E/DX2                !
 ! D96   D(32,25,33,51)         57.1234         estimate D2E/DX2                !
 ! D97   D(25,26,27,28)        -16.9884         estimate D2E/DX2                !
 ! D98   D(25,26,27,30)       -137.0984         estimate D2E/DX2                !
 ! D99   D(25,26,27,31)         99.7332         estimate D2E/DX2                !
 ! D100  D(38,26,27,28)       -139.4679         estimate D2E/DX2                !
 ! D101  D(38,26,27,30)        100.4221         estimate D2E/DX2                !
 ! D102  D(38,26,27,31)        -22.7463         estimate D2E/DX2                !
 ! D103  D(39,26,27,28)        100.8874         estimate D2E/DX2                !
 ! D104  D(39,26,27,30)        -19.2227         estimate D2E/DX2                !
 ! D105  D(39,26,27,31)       -142.3911         estimate D2E/DX2                !
 ! D106  D(26,27,28,1)        -171.6021         estimate D2E/DX2                !
 ! D107  D(26,27,28,29)          9.7923         estimate D2E/DX2                !
 ! D108  D(30,27,28,1)         -50.5671         estimate D2E/DX2                !
 ! D109  D(30,27,28,29)        130.8273         estimate D2E/DX2                !
 ! D110  D(31,27,28,1)          68.2599         estimate D2E/DX2                !
 ! D111  D(31,27,28,29)       -110.3457         estimate D2E/DX2                !
 ! D112  D(26,27,30,40)        178.2953         estimate D2E/DX2                !
 ! D113  D(26,27,30,41)        -61.7994         estimate D2E/DX2                !
 ! D114  D(26,27,30,42)         57.9683         estimate D2E/DX2                !
 ! D115  D(28,27,30,40)         61.4126         estimate D2E/DX2                !
 ! D116  D(28,27,30,41)       -178.6822         estimate D2E/DX2                !
 ! D117  D(28,27,30,42)        -58.9145         estimate D2E/DX2                !
 ! D118  D(31,27,30,40)        -56.5218         estimate D2E/DX2                !
 ! D119  D(31,27,30,41)         63.3835         estimate D2E/DX2                !
 ! D120  D(31,27,30,42)       -176.8489         estimate D2E/DX2                !
 ! D121  D(26,27,31,43)        -55.311          estimate D2E/DX2                !
 ! D122  D(26,27,31,44)         64.6628         estimate D2E/DX2                !
 ! D123  D(26,27,31,45)       -175.8357         estimate D2E/DX2                !
 ! D124  D(28,27,31,43)         59.9946         estimate D2E/DX2                !
 ! D125  D(28,27,31,44)        179.9685         estimate D2E/DX2                !
 ! D126  D(28,27,31,45)        -60.5301         estimate D2E/DX2                !
 ! D127  D(30,27,31,43)        179.852          estimate D2E/DX2                !
 ! D128  D(30,27,31,44)        -60.1742         estimate D2E/DX2                !
 ! D129  D(30,27,31,45)         59.3273         estimate D2E/DX2                !
 ! D130  D(1,28,29,25)        -176.3887         estimate D2E/DX2                !
 ! D131  D(1,28,29,34)          -5.0239         estimate D2E/DX2                !
 ! D132  D(27,28,29,25)          1.6034         estimate D2E/DX2                !
 ! D133  D(27,28,29,34)        172.9681         estimate D2E/DX2                !
 ! D134  D(25,29,34,35)         98.8703         estimate D2E/DX2                !
 ! D135  D(25,29,34,36)        -22.7354         estimate D2E/DX2                !
 ! D136  D(25,29,34,37)       -142.4167         estimate D2E/DX2                !
 ! D137  D(28,29,34,35)        -71.6764         estimate D2E/DX2                !
 ! D138  D(28,29,34,36)        166.7179         estimate D2E/DX2                !
 ! D139  D(28,29,34,37)         47.0366         estimate D2E/DX2                !
 ! D140  D(29,34,35,52)        176.7289         estimate D2E/DX2                !
 ! D141  D(29,34,35,53)        -63.3837         estimate D2E/DX2                !
 ! D142  D(29,34,35,54)         57.0027         estimate D2E/DX2                !
 ! D143  D(36,34,35,52)        -58.6249         estimate D2E/DX2                !
 ! D144  D(36,34,35,53)         61.2626         estimate D2E/DX2                !
 ! D145  D(36,34,35,54)       -178.351          estimate D2E/DX2                !
 ! D146  D(37,34,35,52)         58.7671         estimate D2E/DX2                !
 ! D147  D(37,34,35,53)        178.6545         estimate D2E/DX2                !
 ! D148  D(37,34,35,54)        -60.9591         estimate D2E/DX2                !
 ! D149  D(29,34,36,55)        -62.6854         estimate D2E/DX2                !
 ! D150  D(29,34,36,56)        179.4274         estimate D2E/DX2                !
 ! D151  D(29,34,36,57)         61.2657         estimate D2E/DX2                !
 ! D152  D(35,34,36,55)        176.5322         estimate D2E/DX2                !
 ! D153  D(35,34,36,56)         58.6451         estimate D2E/DX2                !
 ! D154  D(35,34,36,57)        -59.5167         estimate D2E/DX2                !
 ! D155  D(37,34,36,55)         57.6624         estimate D2E/DX2                !
 ! D156  D(37,34,36,56)        -60.2247         estimate D2E/DX2                !
 ! D157  D(37,34,36,57)       -178.3865         estimate D2E/DX2                !
 ! D158  D(29,34,37,58)        -58.9            estimate D2E/DX2                !
 ! D159  D(29,34,37,59)         61.4775         estimate D2E/DX2                !
 ! D160  D(29,34,37,60)       -179.4428         estimate D2E/DX2                !
 ! D161  D(35,34,37,58)         58.5959         estimate D2E/DX2                !
 ! D162  D(35,34,37,59)        178.9735         estimate D2E/DX2                !
 ! D163  D(35,34,37,60)        -61.9468         estimate D2E/DX2                !
 ! D164  D(36,34,37,58)        177.1894         estimate D2E/DX2                !
 ! D165  D(36,34,37,59)        -62.433          estimate D2E/DX2                !
 ! D166  D(36,34,37,60)         56.6467         estimate D2E/DX2                !
 --------------------------------------------------------------------------------
 Trust Radius=3.00D-01 FncErr=1.00D-07 GrdErr=1.00D-06
 Number of steps in this run=    356 maximum allowed number of steps=    360.
 GradGradGradGradGradGradGradGradGradGradGradGradGradGradGradGradGradGrad

 Leave Link  103 at Thu Nov 25 15:17:09 2021, MaxMem=  6710886400 cpu:         0.2
 (Enter /usr/local/gqt/g09/l202.exe)
 Stoichiometry    C19H37NO3
 Framework group  C1[X(C19H37NO3)]
 Deg. of freedom   174
 Full point group                 C1      NOp   1
 Largest Abelian subgroup         C1      NOp   1
 Largest concise Abelian subgroup C1      NOp   1
                         Standard orientation:                         
 ---------------------------------------------------------------------
 Center     Atomic      Atomic             Coordinates (Angstroms)
 Number     Number       Type             X           Y           Z
 ---------------------------------------------------------------------
      1          1           0       -0.029207    0.332183    0.599396
      2          8           0       -1.000434    0.418413    0.789494
      3          6           0       -1.207172    0.385835    2.181321
      4          1           0       -0.791184   -0.531899    2.610531
      5          1           0       -0.694584    1.223915    2.666293
      6          6           0       -5.804789    0.910789   -0.362138
      7          6           0       -3.493863   -0.499849   -1.351924
      8          6           0       -4.695641    1.636701   -1.104859
      9          1           0       -6.146454    1.453352    0.515447
     10          1           0       -6.677443    0.801343   -1.010329
     11          6           0       -4.057408    0.682319   -2.095773
     12          1           0       -3.172102   -1.290432   -2.022489
     13          1           0       -2.655522   -0.205439   -0.721854
     14          1           0       -5.101300    2.514299   -1.603124
     15          1           0       -3.940714    1.989102   -0.401103
     16          1           0       -3.243758    1.158771   -2.640033
     17          1           0       -4.792746    0.354126   -2.831972
     18          8           0       -4.461504   -1.132513   -0.481487
     19          8           0       -6.147111   -1.073657    0.903024
     20          6           0       -5.478048   -0.489122    0.083541
     21          6           0       -2.685701    0.456690    2.480024
     22          1           0       -2.862097    0.437089    3.554375
     23          1           0       -3.114854    1.375457    2.082278
     24          1           0       -3.209189   -0.386900    2.033319
     25          6           0        4.038802   -0.758002   -0.318328
     26          6           0        3.314754   -2.080932   -0.031575
     27          6           0        1.818995   -1.750937    0.041463
     28          6           0        1.754280   -0.256410    0.226386
     29          7           0        2.948196    0.235471    0.049045
     30          6           0        1.132564   -2.465221    1.202572
     31          6           0        1.078246   -2.087047   -1.257966
     32          6           0        5.288340   -0.680762    0.556615
     33          6           0        4.412656   -0.627721   -1.793134
     34          6           0        3.101638    1.737787    0.024800
     35          6           0        2.496365    2.247441   -1.282754
     36          6           0        4.543653    2.221426    0.133668
     37          6           0        2.335328    2.322603    1.208623
     38          1           0        3.553673   -2.830365   -0.783326
     39          1           0        3.649613   -2.469928    0.928713
     40          1           0        0.079272   -2.195063    1.255523
     41          1           0        1.201919   -3.546214    1.076788
     42          1           0        1.597056   -2.207114    2.153427
     43          1           0        1.525741   -1.599878   -2.121930
     44          1           0        1.103273   -3.163412   -1.428189
     45          1           0        0.037403   -1.774021   -1.199028
     46          1           0        5.970194    0.112465    0.273978
     47          1           0        5.826890   -1.621861    0.455512
     48          1           0        5.022360   -0.562499    1.605178
     49          1           0        3.543327   -0.741967   -2.435681
     50          1           0        4.876237    0.329082   -2.017170
     51          1           0        5.128325   -1.406900   -2.050211
     52          1           0        2.535705    3.334945   -1.312166
     53          1           0        3.036974    1.865872   -2.146327
     54          1           0        1.458477    1.932096   -1.356098
     55          1           0        4.998928    1.934429    1.076969
     56          1           0        4.528461    3.308524    0.095143
     57          1           0        5.173750    1.882173   -0.682220
     58          1           0        1.286706    2.053683    1.160669
     59          1           0        2.743591    1.954258    2.148489
     60          1           0        2.430316    3.406963    1.196284
 ---------------------------------------------------------------------
 Rotational constants (GHZ):      0.4335693      0.1006021      0.0965558
 Leave Link  202 at Thu Nov 25 15:17:09 2021, MaxMem=  6710886400 cpu:         0.0
 (Enter /usr/local/gqt/g09/l301.exe)
 Standard basis: 6-311+G(d,p) (5D, 7F)
 Ernie: Thresh=  0.10000D-02 Tol=  0.10000D-05 Strict=F.
 There are   751 symmetry adapted cartesian basis functions of A   symmetry.
 There are   728 symmetry adapted basis functions of A   symmetry.
   728 basis functions,  1124 primitive gaussians,   751 cartesian basis functions
    91 alpha electrons       91 beta electrons
       nuclear repulsion energy      2117.4989467618 Hartrees.
 IExCor= 5547 DFT=T Ex+Corr=N12SX ExCW=0 ScaHFX=  0.250000
 ScaDFX=  1.000000  1.000000  1.000000  1.000000 ScalE2=  1.000000  1.000000
 IRadAn=      0 IRanWt=     -1 IRanGd=            0 ICorTp=0 IEmpDi=  4
  HFx wShort=  0.110000 wLong=  0.000000 cFull=  0.000000 cShort=  1.000000 cLong=  0.000000
  DFx wShort=  0.110000 wLong=  0.000000 cFull=  0.000000 cShort=  1.000000 cLong=  0.000000
 NAtoms=   60 NActive=   60 NUniq=   60 SFac= 1.00D+00 NAtFMM=   60 NAOKFM=T Big=T
 Integral buffers will be    131072 words long.
 Raffenetti 2 integral format.
 Two-electron integral symmetry is turned on.
 ------------------------------------------------------------------------------
 Polarizable Continuum Model (PCM)
 =================================
 Model                : PCM (using non-symmetric T matrix).
 Atomic radii         : UFF (Universal Force Field).
 Polarization charges : Total charges.
 Charge compensation  : None.
 Solution method      : On-the-fly selection.
 Cavity type          : Scaled VdW (van der Waals Surface) (Alpha=1.100).
 Cavity algorithm     : GePol (No added spheres)
                        Default sphere list used, NSphG=   60.
                        Lebedev-Laikov grids with approx.  5.0 points / Ang**2.
                        Smoothing algorithm: Karplus/York (Gamma=1.0000).
                        Polarization charges: spherical gaussians, with
                                              point-specific exponents (IZeta= 3).
                        Self-potential: point-specific (ISelfS= 7).
                        Self-field    : sphere-specific E.n sum rule (ISelfD= 2).
 1st derivatives      : Analytical E(r).r(x)/FMM algorithm (CHGder, D1EAlg=3).
                        Cavity 1st derivative terms included.
 Solvent              : Ethanol, Eps=  24.852000 Eps(inf)=   1.852593
 ------------------------------------------------------------------------------
 GePol: Number of generator spheres                  =      60
 GePol: Total number of spheres                      =      60
 GePol: Number of exposed spheres                    =      60 (100.00%)
 GePol: Number of points                             =    3710
 GePol: Average weight of points                     =       0.13
 GePol: Minimum weight of points                     =   0.14D-09
 GePol: Maximum weight of points                     =    0.20577
 GePol: Number of points with low weight             =     283
 GePol: Fraction of low-weight points (<1% of avg)   =       7.63%
 GePol: Cavity surface area                          =    477.789 Ang**2
 GePol: Cavity volume                                =    537.843 Ang**3
 Leave Link  301 at Thu Nov 25 15:17:09 2021, MaxMem=  6710886400 cpu:         0.8
 (Enter /usr/local/gqt/g09/l302.exe)
 NPDir=0 NMtPBC=     1 NCelOv=     1 NCel=       1 NClECP=     1 NCelD=      1
         NCelK=      1 NCelE2=     1 NClLst=     1 CellRange=     0.0.
 One-electron integrals computed using PRISM.
 NBasis=   728 RedAO= T EigKep=  1.59D-06  NBF=   728
 NBsUse=   728 1.00D-06 EigRej= -1.00D+00 NBFU=   728
 Precomputing XC quadrature grid using
 IXCGrd= 4 IRadAn=           0 IRanWt=          -1 IRanGd=           0 AccXCQ= 0.00D+00.
 Generated NRdTot=       0 NPtTot=           0 NUsed=           0 NTot=          32
 NSgBfM=   739   739   739   739   739 MxSgAt=    60 MxSgA2=    60.
 Leave Link  302 at Thu Nov 25 15:17:10 2021, MaxMem=  6710886400 cpu:        24.7
 (Enter /usr/local/gqt/g09/l303.exe)
 DipDrv:  MaxL=1.
 Leave Link  303 at Thu Nov 25 15:17:10 2021, MaxMem=  6710886400 cpu:         1.9
 (Enter /usr/local/gqt/g09/l401.exe)
 ExpMin= 4.38D-02 ExpMax= 8.59D+03 ExpMxC= 1.30D+03 IAcc=2 IRadAn=         4 AccDes= 0.00D+00
 Harris functional with IExCor= 5547 and IRadAn=       4 diagonalized for initial guess.
 HarFok:  IExCor= 5547 AccDes= 0.00D+00 IRadAn=         4 IDoV= 1 UseB2=F ITyADJ=14
 ICtDFT=  3500011 ScaDFX=  1.000000  1.000000  1.000000  1.000000
 FoFCou: FMM=F IPFlag=           0 FMFlag=      100000 FMFlg1=        2001
         NFxFlg=           0 DoJE=T BraDBF=F KetDBF=T FulRan=T
         wScrn=  0.000000 ICntrl=     500 IOpCl=  0 I1Cent=   200000004 NGrid=           0
         NMat0=    1 NMatS0=      1 NMatT0=    0 NMatD0=    1 NMtDS0=    0 NMtDT0=    0
 Petite list used in FoFCou.
 Harris En= -994.168505931640    
 JPrj=0 DoOrth=F DoCkMO=F.
 Leave Link  401 at Thu Nov 25 15:17:15 2021, MaxMem=  6710886400 cpu:        68.6
 (Enter /usr/local/gqt/g09/l502.exe)
 Closed shell SCF:
 Using DIIS extrapolation, IDIIS=  1040.
 Integral symmetry usage will be decided dynamically.
 IVT=     1728209 IEndB=     1728209 NGot=  6710886400 MDV=  6709739584
 LenX=  6709739584 LenY=  6709174832
 Requested convergence on RMS density matrix=1.00D-08 within 128 cycles.
 Requested convergence on MAX density matrix=1.00D-06.
 Requested convergence on             energy=1.00D-06.
 No special actions if energy rises.
 Fock matrices will be formed incrementally for  20 cycles.

 Cycle   1  Pass 1  IDiag  1:
 FoFJK:  IHMeth= 1 ICntrl=       0 DoSepK=T KAlg= 0 I1Cent=   0 FoldK=F
 IRaf=         1 NMat=   1 IRICut=       1 DoRegI=T DoRafI=F ISym2E= 0.
 FoFCou: FMM=T IPFlag=           0 FMFlag=      100000 FMFlg1=        2001
         NFxFlg=           0 DoJE=T BraDBF=F KetDBF=F FulRan=T
         wScrn=  0.000000 ICntrl=     500 IOpCl=  0 I1Cent=           0 NGrid=           0
         NMat0=    1 NMatS0=      1 NMatT0=    0 NMatD0=    1 NMtDS0=    0 NMtDT0=    0
 Symmetry not used in FoFCou.
 FMM levels:  10  Number of levels for PrismC:   9
 Inv3:  Mode=1 IEnd=    41292300.
 Iteration    1 A*A^-1 deviation from unit magnitude is 5.33D-15 for   3695.
 Iteration    1 A*A^-1 deviation from orthogonality  is 3.78D-15 for   2633    907.
 Iteration    1 A^-1*A deviation from unit magnitude is 5.11D-15 for   3695.
 Iteration    1 A^-1*A deviation from orthogonality  is 9.65D-11 for   3450   3361.
 E= -1026.03614412122    
 DIIS: error= 4.61D-02 at cycle   1 NSaved=   1.
 NSaved= 1 IEnMin= 1 EnMin= -1026.03614412122     IErMin= 1 ErrMin= 4.61D-02
 ErrMax= 4.61D-02  0.00D+00 EMaxC= 1.00D-01 BMatC= 2.53D+00 BMatP= 2.53D+00
 IDIUse=3 WtCom= 5.39D-01 WtEn= 4.61D-01
 Coeff-Com:  0.100D+01
 Coeff-En:   0.100D+01
 Coeff:      0.100D+01
 Gap=     0.150 Goal=   None    Shift=    0.000
 GapD=    0.150 DampG=1.000 DampE=0.500 DampFc=0.5000 IDamp=-1.
 Damping current iteration by 5.00D-01
 RMSDP=1.00D-02 MaxDP=2.51D+00              OVMax= 1.73D-01

 Cycle   2  Pass 1  IDiag  1:
 RMSU=  2.44D-03    CP:  8.22D-01
 E= -1026.19709178120     Delta-E=       -0.160947659977 Rises=F Damp=T
 DIIS: error= 2.15D-02 at cycle   2 NSaved=   2.
 NSaved= 2 IEnMin= 2 EnMin= -1026.19709178120     IErMin= 2 ErrMin= 2.15D-02
 ErrMax= 2.15D-02  0.00D+00 EMaxC= 1.00D-01 BMatC= 5.33D-01 BMatP= 2.53D+00
 IDIUse=3 WtCom= 7.85D-01 WtEn= 2.15D-01
 Coeff-Com: -0.419D+00 0.142D+01
 Coeff-En:   0.156D+00 0.844D+00
 Coeff:     -0.295D+00 0.130D+01
 Gap=     0.217 Goal=   None    Shift=    0.000
 RMSDP=3.50D-03 MaxDP=6.41D-01 DE=-1.61D-01 OVMax= 3.87D-01

 Cycle   3  Pass 1  IDiag  1:
 RMSU=  3.00D-03    CP:  7.58D-01  6.40D-01
 E= -1026.03399121717     Delta-E=        0.163100564021 Rises=F Damp=F
 DIIS: error= 3.17D-02 at cycle   3 NSaved=   3.
 NSaved= 3 IEnMin= 2 EnMin= -1026.19709178120     IErMin= 2 ErrMin= 2.15D-02
 ErrMax= 3.17D-02  0.00D+00 EMaxC= 1.00D-01 BMatC= 5.13D-01 BMatP= 5.33D-01
 IDIUse=3 WtCom= 6.83D-01 WtEn= 3.17D-01
 Coeff-Com: -0.397D+00 0.904D+00 0.493D+00
 Coeff-En:   0.000D+00 0.685D+00 0.315D+00
 Coeff:     -0.271D+00 0.834D+00 0.436D+00
 Gap=     0.193 Goal=   None    Shift=    0.000
 RMSDP=3.20D-03 MaxDP=4.85D-01 DE= 1.63D-01 OVMax= 2.19D-01

 Cycle   4  Pass 1  IDiag  1:
 RMSU=  1.03D-03    CP:  6.88D-01  1.34D+00  3.96D-01
 E= -1026.43469039664     Delta-E=       -0.400699179467 Rises=F Damp=F
 DIIS: error= 6.79D-03 at cycle   4 NSaved=   4.
 NSaved= 4 IEnMin= 4 EnMin= -1026.43469039664     IErMin= 4 ErrMin= 6.79D-03
 ErrMax= 6.79D-03  0.00D+00 EMaxC= 1.00D-01 BMatC= 3.16D-02 BMatP= 5.13D-01
 IDIUse=3 WtCom= 9.32D-01 WtEn= 6.79D-02
 Coeff-Com: -0.174D+00 0.394D+00 0.294D+00 0.486D+00
 Coeff-En:   0.000D+00 0.000D+00 0.141D-01 0.986D+00
 Coeff:     -0.163D+00 0.367D+00 0.275D+00 0.520D+00
 Gap=     0.185 Goal=   None    Shift=    0.000
 RMSDP=8.20D-04 MaxDP=8.27D-02 DE=-4.01D-01 OVMax= 5.21D-02

 Cycle   5  Pass 1  IDiag  1:
 RMSU=  4.57D-04    CP:  6.89D-01  1.29D+00  5.27D-01  4.76D-01
 E= -1026.45989954996     Delta-E=       -0.025209153322 Rises=F Damp=F
 DIIS: error= 1.93D-03 at cycle   5 NSaved=   5.
 NSaved= 5 IEnMin= 5 EnMin= -1026.45989954996     IErMin= 5 ErrMin= 1.93D-03
 ErrMax= 1.93D-03  0.00D+00 EMaxC= 1.00D-01 BMatC= 1.29D-03 BMatP= 3.16D-02
 IDIUse=3 WtCom= 9.81D-01 WtEn= 1.93D-02
 Coeff-Com: -0.313D-01 0.721D-01 0.688D-01 0.228D+00 0.662D+00
 Coeff-En:   0.000D+00 0.000D+00 0.000D+00 0.000D+00 0.100D+01
 Coeff:     -0.307D-01 0.707D-01 0.675D-01 0.224D+00 0.669D+00
 Gap=     0.185 Goal=   None    Shift=    0.000
 RMSDP=1.86D-04 MaxDP=2.55D-02 DE=-2.52D-02 OVMax= 9.89D-03

 Cycle   6  Pass 1  IDiag  1:
 RMSU=  1.30D-04    CP:  6.91D-01  1.28D+00  5.26D-01  5.54D-01  7.81D-01
 E= -1026.46058349845     Delta-E=       -0.000683948488 Rises=F Damp=F
 DIIS: error= 1.60D-03 at cycle   6 NSaved=   6.
 NSaved= 6 IEnMin= 6 EnMin= -1026.46058349845     IErMin= 6 ErrMin= 1.60D-03
 ErrMax= 1.60D-03  0.00D+00 EMaxC= 1.00D-01 BMatC= 4.72D-04 BMatP= 1.29D-03
 IDIUse=3 WtCom= 9.84D-01 WtEn= 1.60D-02
 Coeff-Com:  0.436D-03-0.620D-03 0.949D-02 0.815D-01 0.445D+00 0.465D+00
 Coeff-En:   0.000D+00 0.000D+00 0.000D+00 0.000D+00 0.259D+00 0.741D+00
 Coeff:      0.429D-03-0.610D-03 0.933D-02 0.802D-01 0.442D+00 0.469D+00
 Gap=     0.185 Goal=   None    Shift=    0.000
 RMSDP=6.34D-05 MaxDP=1.23D-02 DE=-6.84D-04 OVMax= 4.02D-03

 Cycle   7  Pass 1  IDiag  1:
 RMSU=  4.21D-05    CP:  6.91D-01  1.28D+00  5.28D-01  5.50D-01  8.27D-01
                    CP:  6.82D-01
 E= -1026.46090969536     Delta-E=       -0.000326196908 Rises=F Damp=F
 DIIS: error= 2.47D-04 at cycle   7 NSaved=   7.
 NSaved= 7 IEnMin= 7 EnMin= -1026.46090969536     IErMin= 7 ErrMin= 2.47D-04
 ErrMax= 2.47D-04  0.00D+00 EMaxC= 1.00D-01 BMatC= 2.03D-05 BMatP= 4.72D-04
 IDIUse=3 WtCom= 9.98D-01 WtEn= 2.47D-03
 Coeff-Com:  0.226D-02-0.485D-02 0.492D-03 0.277D-01 0.193D+00 0.254D+00
 Coeff-Com:  0.527D+00
 Coeff-En:   0.000D+00 0.000D+00 0.000D+00 0.000D+00 0.000D+00 0.000D+00
 Coeff-En:   0.100D+01
 Coeff:      0.226D-02-0.484D-02 0.491D-03 0.276D-01 0.192D+00 0.254D+00
 Coeff:      0.528D+00
 Gap=     0.185 Goal=   None    Shift=    0.000
 RMSDP=2.72D-05 MaxDP=2.49D-03 DE=-3.26D-04 OVMax= 1.28D-03

 Cycle   8  Pass 1  IDiag  1:
 RMSU=  1.44D-05    CP:  6.91D-01  1.28D+00  5.30D-01  5.39D-01  8.62D-01
                    CP:  6.89D-01  7.60D-01
 E= -1026.46092271352     Delta-E=       -0.000013018162 Rises=F Damp=F
 DIIS: error= 7.60D-05 at cycle   8 NSaved=   8.
 NSaved= 8 IEnMin= 8 EnMin= -1026.46092271352     IErMin= 8 ErrMin= 7.60D-05
 ErrMax= 7.60D-05  0.00D+00 EMaxC= 1.00D-01 BMatC= 3.73D-06 BMatP= 2.03D-05
 IDIUse=1 WtCom= 1.00D+00 WtEn= 0.00D+00
 Coeff-Com:  0.852D-03-0.181D-02-0.879D-03 0.209D-02 0.317D-01 0.644D-01
 Coeff-Com:  0.323D+00 0.580D+00
 Coeff:      0.852D-03-0.181D-02-0.879D-03 0.209D-02 0.317D-01 0.644D-01
 Coeff:      0.323D+00 0.580D+00
 Gap=     0.185 Goal=   None    Shift=    0.000
 RMSDP=9.00D-06 MaxDP=1.10D-03 DE=-1.30D-05 OVMax= 6.58D-04

 Cycle   9  Pass 1  IDiag  1:
 RMSU=  4.82D-06    CP:  6.91D-01  1.28D+00  5.28D-01  5.42D-01  8.57D-01
                    CP:  6.81D-01  7.73D-01  8.77D-01
 E= -1026.46092545777     Delta-E=       -0.000002744249 Rises=F Damp=F
 DIIS: error= 2.96D-05 at cycle   9 NSaved=   9.
 NSaved= 9 IEnMin= 9 EnMin= -1026.46092545777     IErMin= 9 ErrMin= 2.96D-05
 ErrMax= 2.96D-05  0.00D+00 EMaxC= 1.00D-01 BMatC= 4.04D-07 BMatP= 3.73D-06
 IDIUse=1 WtCom= 1.00D+00 WtEn= 0.00D+00
 Coeff-Com:  0.219D-03-0.468D-03-0.401D-03-0.120D-02 0.109D-02 0.138D-01
 Coeff-Com:  0.131D+00 0.336D+00 0.520D+00
 Coeff:      0.219D-03-0.468D-03-0.401D-03-0.120D-02 0.109D-02 0.138D-01
 Coeff:      0.131D+00 0.336D+00 0.520D+00
 Gap=     0.185 Goal=   None    Shift=    0.000
 RMSDP=3.19D-06 MaxDP=3.66D-04 DE=-2.74D-06 OVMax= 1.09D-04

 Cycle  10  Pass 1  IDiag  1:
 RMSU=  1.54D-06    CP:  6.91D-01  1.28D+00  5.29D-01  5.43D-01  8.55D-01
                    CP:  6.87D-01  7.92D-01  8.30D-01  7.14D-01
 E= -1026.46092576424     Delta-E=       -0.000000306467 Rises=F Damp=F
 DIIS: error= 6.89D-06 at cycle  10 NSaved=  10.
 NSaved=10 IEnMin=10 EnMin= -1026.46092576424     IErMin=10 ErrMin= 6.89D-06
 ErrMax= 6.89D-06  0.00D+00 EMaxC= 1.00D-01 BMatC= 2.66D-08 BMatP= 4.04D-07
 IDIUse=1 WtCom= 1.00D+00 WtEn= 0.00D+00
 Coeff-Com:  0.172D-04-0.392D-04-0.557D-04-0.832D-03-0.239D-02-0.109D-03
 Coeff-Com:  0.236D-01 0.957D-01 0.245D+00 0.639D+00
 Coeff:      0.172D-04-0.392D-04-0.557D-04-0.832D-03-0.239D-02-0.109D-03
 Coeff:      0.236D-01 0.957D-01 0.245D+00 0.639D+00
 Gap=     0.185 Goal=   None    Shift=    0.000
 RMSDP=1.11D-06 MaxDP=1.51D-04 DE=-3.06D-07 OVMax= 4.82D-05

 Cycle  11  Pass 1  IDiag  1:
 RMSU=  5.46D-07    CP:  6.91D-01  1.28D+00  5.29D-01  5.42D-01  8.56D-01
                    CP:  6.87D-01  7.92D-01  8.54D-01  7.17D-01  8.67D-01
 E= -1026.46092578702     Delta-E=       -0.000000022778 Rises=F Damp=F
 DIIS: error= 1.75D-06 at cycle  11 NSaved=  11.
 NSaved=11 IEnMin=11 EnMin= -1026.46092578702     IErMin=11 ErrMin= 1.75D-06
 ErrMax= 1.75D-06  0.00D+00 EMaxC= 1.00D-01 BMatC= 1.56D-09 BMatP= 2.66D-08
 IDIUse=1 WtCom= 1.00D+00 WtEn= 0.00D+00
 Coeff-Com:  0.944D-05-0.225D-04-0.723D-05-0.321D-03-0.879D-03-0.576D-03
 Coeff-Com:  0.174D-02 0.196D-01 0.664D-01 0.239D+00 0.675D+00
 Coeff:      0.944D-05-0.225D-04-0.723D-05-0.321D-03-0.879D-03-0.576D-03
 Coeff:      0.174D-02 0.196D-01 0.664D-01 0.239D+00 0.675D+00
 Gap=     0.185 Goal=   None    Shift=    0.000
 RMSDP=1.97D-07 MaxDP=2.44D-05 DE=-2.28D-08 OVMax= 5.33D-06

 Cycle  12  Pass 1  IDiag  1:
 RMSU=  1.38D-07    CP:  6.91D-01  1.28D+00  5.29D-01  5.42D-01  8.57D-01
                    CP:  6.87D-01  7.93D-01  8.54D-01  7.32D-01  8.42D-01
                    CP:  8.42D-01
 E= -1026.46092578795     Delta-E=       -0.000000000934 Rises=F Damp=F
 DIIS: error= 4.04D-07 at cycle  12 NSaved=  12.
 NSaved=12 IEnMin=12 EnMin= -1026.46092578795     IErMin=12 ErrMin= 4.04D-07
 ErrMax= 4.04D-07  0.00D+00 EMaxC= 1.00D-01 BMatC= 2.12D-10 BMatP= 1.56D-09
 IDIUse=1 WtCom= 1.00D+00 WtEn= 0.00D+00
 Coeff-Com:  0.211D-05-0.600D-05 0.670D-05-0.641D-04-0.134D-03-0.255D-03
 Coeff-Com: -0.245D-02-0.237D-02 0.323D-03 0.327D-01 0.323D+00 0.649D+00
 Coeff:      0.211D-05-0.600D-05 0.670D-05-0.641D-04-0.134D-03-0.255D-03
 Coeff:     -0.245D-02-0.237D-02 0.323D-03 0.327D-01 0.323D+00 0.649D+00
 Gap=     0.185 Goal=   None    Shift=    0.000
 RMSDP=9.37D-08 MaxDP=1.46D-05 DE=-9.34D-10 OVMax= 2.10D-06

 Cycle  13  Pass 1  IDiag  1:
 RMSU=  5.57D-08    CP:  6.91D-01  1.28D+00  5.29D-01  5.42D-01  8.57D-01
                    CP:  6.87D-01  7.92D-01  8.55D-01  7.31D-01  8.60D-01
                    CP:  8.80D-01  6.87D-01
 E= -1026.46092578817     Delta-E=       -0.000000000221 Rises=F Damp=F
 DIIS: error= 1.05D-07 at cycle  13 NSaved=  13.
 NSaved=13 IEnMin=13 EnMin= -1026.46092578817     IErMin=13 ErrMin= 1.05D-07
 ErrMax= 1.05D-07  0.00D+00 EMaxC= 1.00D-01 BMatC= 9.22D-12 BMatP= 2.12D-10
 IDIUse=1 WtCom= 1.00D+00 WtEn= 0.00D+00
 Coeff-Com: -0.310D-07-0.308D-06 0.266D-05-0.582D-05-0.428D-05-0.680D-04
 Coeff-Com: -0.107D-02-0.201D-02-0.483D-02-0.547D-02 0.657D-01 0.246D+00
 Coeff-Com:  0.702D+00
 Coeff:     -0.310D-07-0.308D-06 0.266D-05-0.582D-05-0.428D-05-0.680D-04
 Coeff:     -0.107D-02-0.201D-02-0.483D-02-0.547D-02 0.657D-01 0.246D+00
 Coeff:      0.702D+00
 Gap=     0.185 Goal=   None    Shift=    0.000
 RMSDP=2.76D-08 MaxDP=5.52D-06 DE=-2.21D-10 OVMax= 9.09D-07

 Cycle  14  Pass 1  IDiag  1:
 RMSU=  1.60D-08    CP:  6.91D-01  1.28D+00  5.29D-01  5.42D-01  8.57D-01
                    CP:  6.87D-01  7.92D-01  8.56D-01  7.32D-01  8.60D-01
                    CP:  8.81D-01  7.61D-01  7.99D-01
 E= -1026.46092578818     Delta-E=       -0.000000000006 Rises=F Damp=F
 DIIS: error= 4.68D-08 at cycle  14 NSaved=  14.
 NSaved=14 IEnMin=14 EnMin= -1026.46092578818     IErMin=14 ErrMin= 4.68D-08
 ErrMax= 4.68D-08  0.00D+00 EMaxC= 1.00D-01 BMatC= 1.50D-12 BMatP= 9.22D-12
 IDIUse=1 WtCom= 1.00D+00 WtEn= 0.00D+00
 Coeff-Com: -0.181D-06 0.329D-06 0.953D-06 0.122D-05 0.860D-05-0.174D-04
 Coeff-Com: -0.394D-03-0.834D-03-0.258D-02-0.505D-02 0.131D-01 0.874D-01
 Coeff-Com:  0.375D+00 0.534D+00
 Coeff:     -0.181D-06 0.329D-06 0.953D-06 0.122D-05 0.860D-05-0.174D-04
 Coeff:     -0.394D-03-0.834D-03-0.258D-02-0.505D-02 0.131D-01 0.874D-01
 Coeff:      0.375D+00 0.534D+00
 Gap=     0.185 Goal=   None    Shift=    0.000
 RMSDP=6.94D-09 MaxDP=5.37D-07 DE=-6.37D-12 OVMax= 2.46D-07

 Error on total polarization charges =  0.01952
 SCF Done:  E(RN12SX) =  -1026.46092579     A.U. after   14 cycles
            NFock= 14  Conv=0.69D-08     -V/T= 2.0058
 KE= 1.020543833817D+03 PE=-6.624306213165D+03 EE= 2.459802506798D+03
 Leave Link  502 at Thu Nov 25 15:25:55 2021, MaxMem=  6710886400 cpu:      8176.6
 (Enter /usr/local/gqt/g09/l601.exe)
 Copying SCF densities to generalized density rwf, IOpCl= 0 IROHF=0.

 **********************************************************************

            Population analysis using the SCF density.

 **********************************************************************

 Orbital symmetries:
       Occupied  (A) (A) (A) (A) (A) (A) (A) (A) (A) (A) (A) (A)
                 (A) (A) (A) (A) (A) (A) (A) (A) (A) (A) (A) (A)
                 (A) (A) (A) (A) (A) (A) (A) (A) (A) (A) (A) (A)
                 (A) (A) (A) (A) (A) (A) (A) (A) (A) (A) (A) (A)
                 (A) (A) (A) (A) (A) (A) (A) (A) (A) (A) (A) (A)
                 (A) (A) (A) (A) (A) (A) (A) (A) (A) (A) (A) (A)
                 (A) (A) (A) (A) (A) (A) (A) (A) (A) (A) (A) (A)
                 (A) (A) (A) (A) (A) (A) (A)
       Virtual   (A) (A) (A) (A) (A) (A) (A) (A) (A) (A) (A) (A)
                 (A) (A) (A) (A) (A) (A) (A) (A) (A) (A) (A) (A)
                 (A) (A) (A) (A) (A) (A) (A) (A) (A) (A) (A) (A)
                 (A) (A) (A) (A) (A) (A) (A) (A) (A) (A) (A) (A)
                 (A) (A) (A) (A) (A) (A) (A) (A) (A) (A) (A) (A)
                 (A) (A) (A) (A) (A) (A) (A) (A) (A) (A) (A) (A)
                 (A) (A) (A) (A) (A) (A) (A) (A) (A) (A) (A) (A)
                 (A) (A) (A) (A) (A) (A) (A) (A) (A) (A) (A) (A)
                 (A) (A) (A) (A) (A) (A) (A) (A) (A) (A) (A) (A)
                 (A) (A) (A) (A) (A) (A) (A) (A) (A) (A) (A) (A)
                 (A) (A) (A) (A) (A) (A) (A) (A) (A) (A) (A) (A)
                 (A) (A) (A) (A) (A) (A) (A) (A) (A) (A) (A) (A)
                 (A) (A) (A) (A) (A) (A) (A) (A) (A) (A) (A) (A)
                 (A) (A) (A) (A) (A) (A) (A) (A) (A) (A) (A) (A)
                 (A) (A) (A) (A) (A) (A) (A) (A) (A) (A) (A) (A)
                 (A) (A) (A) (A) (A) (A) (A) (A) (A) (A) (A) (A)
                 (A) (A) (A) (A) (A) (A) (A) (A) (A) (A) (A) (A)
                 (A) (A) (A) (A) (A) (A) (A) (A) (A) (A) (A) (A)
                 (A) (A) (A) (A) (A) (A) (A) (A) (A) (A) (A) (A)
                 (A) (A) (A) (A) (A) (A) (A) (A) (A) (A) (A) (A)
                 (A) (A) (A) (A) (A) (A) (A) (A) (A) (A) (A) (A)
                 (A) (A) (A) (A) (A) (A) (A) (A) (A) (A) (A) (A)
                 (A) (A) (A) (A) (A) (A) (A) (A) (A) (A) (A) (A)
                 (A) (A) (A) (A) (A) (A) (A) (A) (A) (A) (A) (A)
                 (A) (A) (A) (A) (A) (A) (A) (A) (A) (A) (A) (A)
                 (A) (A) (A) (A) (A) (A) (A) (A) (A) (A) (A) (A)
                 (A) (A) (A) (A) (A) (A) (A) (A) (A) (A) (A) (A)
                 (A) (A) (A) (A) (A) (A) (A) (A) (A) (A) (A) (A)
                 (A) (A) (A) (A) (A) (A) (A) (A) (A) (A) (A) (A)
                 (A) (A) (A) (A) (A) (A) (A) (A) (A) (A) (A) (A)
                 (A) (A) (A) (A) (A) (A) (A) (A) (A) (A) (A) (A)
                 (A) (A) (A) (A) (A) (A) (A) (A) (A) (A) (A) (A)
                 (A) (A) (A) (A) (A) (A) (A) (A) (A) (A) (A) (A)
                 (A) (A) (A) (A) (A) (A) (A) (A) (A) (A) (A) (A)
                 (A) (A) (A) (A) (A) (A) (A) (A) (A) (A) (A) (A)
                 (A) (A) (A) (A) (A) (A) (A) (A) (A) (A) (A) (A)
                 (A) (A) (A) (A) (A) (A) (A) (A) (A) (A) (A) (A)
                 (A) (A) (A) (A) (A) (A) (A) (A) (A) (A) (A) (A)
                 (A) (A) (A) (A) (A) (A) (A) (A) (A) (A) (A) (A)
                 (A) (A) (A) (A) (A) (A) (A) (A) (A) (A) (A) (A)
                 (A) (A) (A) (A) (A) (A) (A) (A) (A) (A) (A) (A)
                 (A) (A) (A) (A) (A) (A) (A) (A) (A) (A) (A) (A)
                 (A) (A) (A) (A) (A) (A) (A) (A) (A) (A) (A) (A)
                 (A) (A) (A) (A) (A) (A) (A) (A) (A) (A) (A) (A)
                 (A) (A) (A) (A) (A) (A) (A) (A) (A) (A) (A) (A)
                 (A) (A) (A) (A) (A) (A) (A) (A) (A) (A) (A) (A)
                 (A) (A) (A) (A) (A) (A) (A) (A) (A) (A) (A) (A)
                 (A) (A) (A) (A) (A) (A) (A) (A) (A) (A) (A) (A)
                 (A) (A) (A) (A) (A) (A) (A) (A) (A) (A) (A) (A)
                 (A) (A) (A) (A) (A) (A) (A) (A) (A) (A) (A) (A)
                 (A) (A) (A) (A) (A) (A) (A) (A) (A) (A) (A) (A)
                 (A) (A) (A) (A) (A) (A) (A) (A) (A) (A) (A) (A)
                 (A) (A) (A) (A) (A) (A) (A) (A) (A) (A) (A) (A)
                 (A)
 The electronic state is 1-A.
 Alpha  occ. eigenvalues --  -19.21663 -19.15508 -19.13649 -14.40951 -10.36004
 Alpha  occ. eigenvalues --  -10.27510 -10.27466 -10.27305 -10.25018 -10.23360
 Alpha  occ. eigenvalues --  -10.22934 -10.22670 -10.22405 -10.22265 -10.21063
 Alpha  occ. eigenvalues --  -10.21049 -10.20830 -10.20812 -10.20530 -10.20478
 Alpha  occ. eigenvalues --  -10.20182 -10.20166 -10.19856  -1.10514  -1.01566
 Alpha  occ. eigenvalues --   -0.98600  -0.97077  -0.84042  -0.82198  -0.80092
 Alpha  occ. eigenvalues --   -0.78742  -0.76554  -0.73885  -0.70149  -0.69339
 Alpha  occ. eigenvalues --   -0.68849  -0.68521  -0.68323  -0.67713  -0.63528
 Alpha  occ. eigenvalues --   -0.62722  -0.59721  -0.58993  -0.54914  -0.54187
 Alpha  occ. eigenvalues --   -0.51271  -0.51130  -0.50078  -0.48468  -0.47879
 Alpha  occ. eigenvalues --   -0.47412  -0.46897  -0.45740  -0.45161  -0.45058
 Alpha  occ. eigenvalues --   -0.44914  -0.44208  -0.43511  -0.43325  -0.42281
 Alpha  occ. eigenvalues --   -0.41768  -0.40825  -0.40069  -0.39786  -0.39645
 Alpha  occ. eigenvalues --   -0.39332  -0.38950  -0.38549  -0.38144  -0.37319
 Alpha  occ. eigenvalues --   -0.37304  -0.36341  -0.36261  -0.36156  -0.35567
 Alpha  occ. eigenvalues --   -0.35187  -0.35015  -0.34903  -0.34269  -0.33701
 Alpha  occ. eigenvalues --   -0.33048  -0.32536  -0.32373  -0.32325  -0.31424
 Alpha  occ. eigenvalues --   -0.30320  -0.29296  -0.27897  -0.27613  -0.25295
 Alpha  occ. eigenvalues --   -0.20595
 Alpha virt. eigenvalues --   -0.02084  -0.01381  -0.00794  -0.00101   0.00209
 Alpha virt. eigenvalues --    0.00308   0.00965   0.01297   0.01469   0.02106
 Alpha virt. eigenvalues --    0.02305   0.02528   0.02700   0.02918   0.03548
 Alpha virt. eigenvalues --    0.04044   0.04384   0.04485   0.04707   0.05010
 Alpha virt. eigenvalues --    0.05246   0.05576   0.05769   0.06021   0.06779
 Alpha virt. eigenvalues --    0.06960   0.07239   0.07363   0.07689   0.08010
 Alpha virt. eigenvalues --    0.08238   0.08557   0.08649   0.09056   0.09262
 Alpha virt. eigenvalues --    0.09712   0.09848   0.09963   0.10278   0.10876
 Alpha virt. eigenvalues --    0.11199   0.11303   0.11435   0.11971   0.12030
 Alpha virt. eigenvalues --    0.12182   0.12465   0.12634   0.12952   0.12996
 Alpha virt. eigenvalues --    0.13351   0.13527   0.13984   0.14262   0.14394
 Alpha virt. eigenvalues --    0.14698   0.15028   0.15205   0.15659   0.15844
 Alpha virt. eigenvalues --    0.16043   0.16313   0.16826   0.16915   0.17110
 Alpha virt. eigenvalues --    0.17438   0.17608   0.17771   0.18264   0.18355
 Alpha virt. eigenvalues --    0.18660   0.18891   0.18974   0.19369   0.19534
 Alpha virt. eigenvalues --    0.19790   0.20000   0.20276   0.20491   0.20737
 Alpha virt. eigenvalues --    0.20781   0.20988   0.21253   0.21398   0.21557
 Alpha virt. eigenvalues --    0.21899   0.22454   0.22506   0.22794   0.22914
 Alpha virt. eigenvalues --    0.23323   0.23505   0.23772   0.24023   0.24447
 Alpha virt. eigenvalues --    0.24572   0.24733   0.25073   0.25194   0.25392
 Alpha virt. eigenvalues --    0.25616   0.25991   0.26147   0.26412   0.26802
 Alpha virt. eigenvalues --    0.26855   0.27111   0.27495   0.27825   0.28318
 Alpha virt. eigenvalues --    0.28590   0.28624   0.28768   0.29102   0.29323
 Alpha virt. eigenvalues --    0.29548   0.29942   0.30261   0.30650   0.31016
 Alpha virt. eigenvalues --    0.31269   0.31726   0.31922   0.32324   0.32832
 Alpha virt. eigenvalues --    0.32998   0.33219   0.33484   0.33622   0.33949
 Alpha virt. eigenvalues --    0.34569   0.35012   0.35359   0.35918   0.36631
 Alpha virt. eigenvalues --    0.37107   0.37298   0.37612   0.37962   0.38685
 Alpha virt. eigenvalues --    0.38986   0.39322   0.39928   0.40383   0.40896
 Alpha virt. eigenvalues --    0.41224   0.41816   0.42687   0.42842   0.43523
 Alpha virt. eigenvalues --    0.43810   0.44519   0.45134   0.46113   0.46661
 Alpha virt. eigenvalues --    0.47076   0.47446   0.47580   0.48676   0.49065
 Alpha virt. eigenvalues --    0.49710   0.50394   0.50586   0.51130   0.51616
 Alpha virt. eigenvalues --    0.52004   0.52443   0.52887   0.53534   0.54192
 Alpha virt. eigenvalues --    0.55025   0.55948   0.56095   0.56577   0.56784
 Alpha virt. eigenvalues --    0.57454   0.57916   0.58428   0.58796   0.59004
 Alpha virt. eigenvalues --    0.59902   0.59933   0.60544   0.61292   0.61517
 Alpha virt. eigenvalues --    0.62237   0.62470   0.62920   0.62988   0.63536
 Alpha virt. eigenvalues --    0.64430   0.64724   0.64933   0.65245   0.65809
 Alpha virt. eigenvalues --    0.66553   0.66659   0.66933   0.67556   0.67568
 Alpha virt. eigenvalues --    0.68014   0.68508   0.68645   0.69088   0.69575
 Alpha virt. eigenvalues --    0.69987   0.70259   0.70679   0.71043   0.71374
 Alpha virt. eigenvalues --    0.71657   0.71908   0.72522   0.72700   0.72946
 Alpha virt. eigenvalues --    0.73412   0.74066   0.74601   0.75100   0.75273
 Alpha virt. eigenvalues --    0.75369   0.76087   0.76545   0.76773   0.76863
 Alpha virt. eigenvalues --    0.77433   0.77670   0.77882   0.78429   0.78948
 Alpha virt. eigenvalues --    0.79604   0.79940   0.80285   0.80527   0.80882
 Alpha virt. eigenvalues --    0.80956   0.82183   0.83187   0.83308   0.83563
 Alpha virt. eigenvalues --    0.84344   0.84879   0.85079   0.87096   0.87868
 Alpha virt. eigenvalues --    0.88823   0.90060   0.90935   0.91291   0.92177
 Alpha virt. eigenvalues --    0.93479   0.95352   0.95595   0.96564   0.97950
 Alpha virt. eigenvalues --    0.98920   0.99256   1.00014   1.02271   1.03013
 Alpha virt. eigenvalues --    1.04077   1.05673   1.06171   1.07019   1.08490
 Alpha virt. eigenvalues --    1.09155   1.10504   1.11044   1.11943   1.13235
 Alpha virt. eigenvalues --    1.14449   1.15377   1.16104   1.16539   1.17129
 Alpha virt. eigenvalues --    1.18260   1.19783   1.19858   1.20080   1.21886
 Alpha virt. eigenvalues --    1.22516   1.23052   1.24665   1.25687   1.26136
 Alpha virt. eigenvalues --    1.27373   1.28002   1.28439   1.28982   1.30071
 Alpha virt. eigenvalues --    1.31249   1.32954   1.34037   1.35024   1.35569
 Alpha virt. eigenvalues --    1.36357   1.37959   1.38275   1.40832   1.41427
 Alpha virt. eigenvalues --    1.43322   1.44172   1.45242   1.45890   1.46422
 Alpha virt. eigenvalues --    1.47287   1.47650   1.47831   1.48386   1.49004
 Alpha virt. eigenvalues --    1.49208   1.49653   1.50320   1.50694   1.51164
 Alpha virt. eigenvalues --    1.51313   1.52939   1.53395   1.53673   1.53969
 Alpha virt. eigenvalues --    1.54618   1.54687   1.55524   1.56028   1.56445
 Alpha virt. eigenvalues --    1.56884   1.57150   1.57628   1.58425   1.59170
 Alpha virt. eigenvalues --    1.59475   1.60048   1.60772   1.61039   1.61598
 Alpha virt. eigenvalues --    1.61916   1.62220   1.62743   1.62924   1.63341
 Alpha virt. eigenvalues --    1.64174   1.64618   1.64892   1.65150   1.65833
 Alpha virt. eigenvalues --    1.66382   1.66712   1.67026   1.67518   1.68178
 Alpha virt. eigenvalues --    1.68723   1.69163   1.69342   1.70358   1.70519
 Alpha virt. eigenvalues --    1.70807   1.71412   1.72018   1.72509   1.72737
 Alpha virt. eigenvalues --    1.73298   1.74015   1.74248   1.74598   1.74756
 Alpha virt. eigenvalues --    1.74833   1.75486   1.76235   1.77055   1.77285
 Alpha virt. eigenvalues --    1.78291   1.78746   1.79114   1.79665   1.80230
 Alpha virt. eigenvalues --    1.81063   1.81626   1.81994   1.82353   1.82998
 Alpha virt. eigenvalues --    1.83747   1.84490   1.85197   1.85948   1.86247
 Alpha virt. eigenvalues --    1.87457   1.87579   1.88795   1.89061   1.89495
 Alpha virt. eigenvalues --    1.90329   1.91060   1.92043   1.92563   1.93099
 Alpha virt. eigenvalues --    1.94026   1.97103   1.98436   1.99466   2.00115
 Alpha virt. eigenvalues --    2.00233   2.01229   2.02412   2.02771   2.03604
 Alpha virt. eigenvalues --    2.04731   2.06265   2.07270   2.08132   2.08715
 Alpha virt. eigenvalues --    2.08983   2.10204   2.13049   2.13902   2.14315
 Alpha virt. eigenvalues --    2.15026   2.15386   2.17073   2.18543   2.19038
 Alpha virt. eigenvalues --    2.20198   2.20463   2.20990   2.21703   2.22667
 Alpha virt. eigenvalues --    2.23132   2.24548   2.24661   2.25331   2.26068
 Alpha virt. eigenvalues --    2.27151   2.27849   2.28284   2.28606   2.29935
 Alpha virt. eigenvalues --    2.30296   2.33043   2.33697   2.33801   2.34960
 Alpha virt. eigenvalues --    2.36476   2.37304   2.39945   2.42185   2.44304
 Alpha virt. eigenvalues --    2.45892   2.46494   2.46926   2.48015   2.48986
 Alpha virt. eigenvalues --    2.49488   2.49917   2.50150   2.50711   2.51497
 Alpha virt. eigenvalues --    2.51881   2.52607   2.52773   2.53225   2.53716
 Alpha virt. eigenvalues --    2.53764   2.54415   2.54646   2.54955   2.55986
 Alpha virt. eigenvalues --    2.56257   2.56501   2.56629   2.57543   2.57746
 Alpha virt. eigenvalues --    2.58647   2.58906   2.59353   2.59746   2.60372
 Alpha virt. eigenvalues --    2.60957   2.61504   2.61758   2.62088   2.63344
[...]
 6930,0.00004496,-0.01539357,-0.00481877,-0.00056205,0.00073684,-0.0002
 1780,-0.00127916,-0.00094664,0.00249488,0.00288605,-0.30889567,-0.0754
 3993,0.00227735,0.00008876,-0.00002480,-0.00000113,0.00003895,-0.00000
 989,0.00000138,-0.00000220,0.00000792,-0.00000031,-0.00000232,-0.00002
 147,0.00001287,-0.00000330,0.00000537,0.00000743,-0.00000441,0.0000035
 6,-0.00000941,0.00000348,-0.00001924,-0.00000689,0.00000441,0.00001217
 ,-0.00000127,0.00008112,-0.00001838,0.00000201,0.00003020,0.00004008,0
 .00000529,-0.00000183,-0.00000819,0.00000969,0.00000481,0.00001938,0.0
 0000993,0.00002261,0.00000437,-0.00006305,0.00001128,0.00001768,-0.000
 02021,0.00001627,0.00005551,0.00010781,0.00016367,0.00016487,-0.000157
 47,0.00051090,0.00000822,0.00054064,0.00031351,0.00005751,-0.00005526,
 0.00026024,-0.00008312,-0.00008773,-0.00079188,-0.00054030,0.00012727,
 0.33287343,-0.00154559,-0.00280773,-0.00041325,0.00058839,0.00031391,-
 0.00020373,-0.00058462,-0.00020252,0.00126699,-0.00002468,0.00005113,-
 0.00015236,-0.00009440,-0.00001729,-0.00005885,-0.00000217,-0.00000366
 ,-0.00000346,-0.00003300,-0.00001266,0.00000189,-0.00000140,-0.0000040
 9,0.00000465,0.00000071,0.00000002,-0.00000097,-0.00000039,-0.00000140
 ,0.00000101,0.00001192,0.00001553,0.00000063,0.00000930,0.00000481,0.0
 0000804,-0.00005388,-0.00002332,-0.00004057,0.00000561,-0.00000321,0.0
 0000347,0.00000429,0.00000920,-0.00000663,-0.00000280,0.00000096,-0.00
 000061,0.00000682,-0.00000956,0.00000672,0.00005103,-0.00002166,-0.000
 00642,0.00002587,-0.00000051,-0.00001559,-0.00006325,0.00003053,0.0000
 1770,-0.00002109,0.00001667,-0.00013237,0.00007235,-0.00002039,-0.0000
 5234,0.00002729,-0.00000651,0.00002402,0.00002104,-0.00000024,0.000018
 20,0.00019362,-0.00014046,0.00020627,-0.00008107,0.00003708,0.00005365
 ,-0.00020458,-0.00013312,0.00015635,0.00115374,-0.00181342,-0.00127479
 ,-0.00055338,0.00115974,0.00072803,-0.00001640,0.00001317,0.00006248,-
 0.00004534,0.00003029,-0.00004915,-0.00003140,0.00011400,0.00004010,-0
 .00013064,0.00015162,-0.00001845,0.01680046,0.00403878,-0.00006225,-0.
 00011876,0.00043773,0.00108781,0.00119093,-0.00165870,-0.00191136,-0.0
 7917560,-0.06778691,0.00145077,-0.00004794,0.00003810,0.00001030,-0.00
 001824,0.00001006,-0.00001712,-0.00001887,-0.00003516,0.00000399,-0.00
 001203,0.00003860,-0.00001844,0.00000162,-0.00002119,-0.00000249,-0.00
 000264,-0.00000573,0.00001336,0.00000515,0.00003092,0.00002182,-0.0000
 0650,-0.00001917,-0.00001150,-0.00005062,0.00000786,-0.00001135,-0.000
 04511,-0.00002478,-0.00001601,0.00001081,0.00000028,-0.00002145,0.0000
 0651,-0.00000492,-0.00001512,-0.00001564,0.00000443,0.00003815,-0.0000
 3093,-0.00000356,0.00006838,-0.00012812,-0.00003868,0.00000262,0.00000
 256,-0.00013491,0.00013081,-0.00039251,0.00000689,0.00000295,-0.000147
 52,-0.00015866,-0.00006427,0.00005902,0.00042466,-0.00016143,0.0008065
 1,0.00073544,-0.00036957,0.08520133,0.07344698,-0.00022273,-0.00056237
 ,0.00056858,0.00043416,0.00043086,-0.00078892,0.00039456,0.00084684,0.
 00058147,-0.00006213,-0.00012615,-0.00009330,0.00021840,-0.00029832,-0
 .00057942,0.00000125,0.00000012,0.00000205,-0.00000817,-0.00000094,0.0
 0000865,0.00000179,-0.00000140,-0.00000155,0.00000138,-0.00000031,-0.0
 0000053,0.00000051,0.00000088,-0.00000076,-0.00000273,-0.00000128,-0.0
 0000040,0.00000008,-0.00000120,-0.00000174,-0.00000063,-0.00000298,0.0
 0000430,-0.00000119,0.00000045,-0.00000069,-0.00000328,0.00000096,0.00
 000698,0.00000171,0.00000064,-0.00000274,0.00000114,0.00000178,-0.0000
 0065,0.00000448,0.00000117,-0.00001009,-0.00000026,0.00000212,-0.00000
 655,0.00000417,-0.00000190,0.00001095,-0.00004429,-0.00023413,-0.00013
 825,0.00001476,0.00000189,0.00000840,-0.00001363,0.00002052,-0.0000049
 3,-0.00010801,0.00001221,0.00000664,0.00019118,-0.00002654,0.00020108,
 -0.00002536,0.00005749,0.00000773,-0.00015509,-0.00001892,0.00018543,-
 0.00005732,-0.00010223,-0.00077824,-0.00058339,0.00094401,0.00040403,-
 0.00000597,-0.00003681,0.00001161,-0.00000954,0.00001113,0.00000611,0.
 00003328,-0.00000475,-0.00003312,-0.00004896,0.00008308,-0.00000545,0.
 02246001,0.00803998,-0.00145725,0.00091940,0.00077853,0.00155941,0.002
 33431,-0.00272450,-0.00339039,-0.00010837,0.00041369,-0.04808398,-0.00
 002415,0.00000944,-0.00000313,-0.00001030,0.00000487,0.00000116,0.0000
 0376,0.00000136,0.00000489,-0.00000211,0.00000125,0.00000249,-0.000004
 06,0.00000356,-0.00000442,0.00000374,0.00000046,0.00000301,0.00000347,
 -0.00000089,0.00000153,0.00000049,-0.00000491,0.00000261,-0.00007304,0
 .00002721,-0.00001698,-0.00000321,-0.00002520,0.00002605,0.00000279,-0
 .00001390,0.00001519,-0.00001094,-0.00001944,-0.00000708,-0.00001101,0
 .00003526,0.00006098,-0.00001000,-0.00001968,0.00001654,-0.00004030,0.
 00006410,-0.00004198,-0.00018498,-0.00005036,0.00028493,-0.00054141,-0
 .00025409,-0.00043336,0.00021101,-0.00003611,0.00020642,-0.00028160,-0
 .00025485,-0.00004242,0.00162518,0.00030915,0.00018331,-0.00479488,0.0
 0044605,0.05148699,-0.00012068,0.00045806,-0.00001494,-0.00038235,-0.0
 0054947,0.00026527,0.00009167,-0.00011676,-0.00038878,0.00000297,-0.00
 002236,0.00005457,0.00000024,0.00010113,0.00000951,0.00000089,-0.00000
 061,-0.00000129,0.00000996,0.00000566,-0.00000518,0.00000345,0.0000010
 2,0.00000393,-0.00000046,0.00000072,0.00000049,-0.00000131,-0.00000106
 ,0.00000028,-0.00000052,-0.00000144,-0.00000074,-0.00000201,-0.0000017
 2,-0.00000203,0.00000557,0.00000513,0.00000545,-0.00000018,0.00000007,
 -0.00000021,0.00000017,-0.00000159,-0.00000490,-0.00000050,0.00000059,
 0.00000347,-0.00000240,-0.00000026,-0.00000153,-0.00001370,0.00000149,
 0.00000749,-0.00000774,-0.00000440,0.00000995,0.00001371,0.00000011,-0
 .00001244,0.00001048,0.00004305,0.00004675,-0.00001643,0.00000179,0.00
 000804,0.00000565,-0.00000423,-0.00000223,0.00001415,-0.00000240,-0.00
 000346,-0.00013679,-0.00014525,-0.00008001,0.00001959,-0.00002641,-0.0
 0002941,0.00004579,-0.00003099,-0.00002651,0.00020075,-0.00002782,0.00
 040427,0.00058109,-0.00096737,-0.00035344,-0.00000545,-0.00000291,-0.0
 0002296,0.00000837,-0.00001022,0.00000873,-0.00001262,0.00002628,0.000
 02246,0.00001655,-0.00000501,-0.00001112,0.00532500,-0.00338456,0.0157
 0840,-0.00129645,0.00138164,0.00201972,0.00124547,-0.00020898,0.000573
 42,-0.09337866,0.02000468,-0.10140062,-0.00000398,-0.00000977,0.000003
 21,0.00000393,-0.00000282,0.00000439,-0.00000173,0.00000158,-0.0000006
 4,0.00000207,-0.00000130,0.00000924,0.00001208,0.00000538,0.00001145,0
 .00000075,0.00000196,0.00000122,-0.00000383,-0.00000356,-0.00000338,-0
 .00000405,0.00000262,-0.00000145,-0.00001125,0.00001339,0.00001052,-0.
 00000724,-0.00001639,-0.00001993,0.00001338,0.00003442,-0.00003002,-0.
 00000537,-0.00001232,-0.00000303,0.00001483,-0.00000255,0.00000531,0.0
 0000428,0.00000060,-0.00001103,-0.00014041,0.00000706,-0.00003981,0.00
 064636,0.00010476,0.00078163,0.00017621,0.00013738,0.00018777,-0.00034
 239,0.00014992,0.00001747,-0.00008815,-0.00002797,0.00007115,0.0001736
 3,0.00003423,-0.00024006,-0.00997292,0.00719741,-0.02769209,0.09740639
 ,-0.00017781,0.00018428,-0.00000025,0.00001740,-0.00017267,0.00000870,
 0.00001317,-0.00001911,-0.00003158,0.00000850,-0.00000512,0.00001313,-
 0.00002099,0.00001362,0.00000414,-0.00000012,0.00000011,0.00000058,-0.
 00000062,0.00000027,-0.00000083,-0.00000082,-0.00000046,-0.00000096,-0
 .00000013,0.00000018,-0.00000023,0.00000035,-0.00000003,0.00000005,0.0
 0000023,-0.00000013,-0.00000020,0.00000028,0.00000058,-0.00000011,-0.0
 0000016,-0.00000128,-0.00000091,-0.00000015,0.,0.00000004,0.00000011,0
 .00000014,0.00000075,-0.00000024,-0.00000040,-0.00000026,0.00000050,0.
 00000030,0.00000028,0.00000327,-0.00000022,0.00000059,0.00000182,0.000
 00052,-0.00000079,-0.00000346,0.00000057,0.00000079,0.00000554,0.00001
 354,0.00000955,-0.00000060,0.00000063,-0.00000240,0.00000323,-0.000001
 72,0.00000077,0.00000633,-0.00000100,-0.00000078,0.00022485,0.00004464
 ,-0.00014401,-0.00003372,0.00004506,0.00001087,-0.00004955,-0.00001589
 ,0.00002530,-0.00010486,-0.00002520,0.00042419,-0.00043984,0.00177579,
 -0.00056579,-0.00001679,0.00000884,-0.00000191,-0.00001889,0.00001473,
 -0.00003256,-0.00002077,0.00000744,-0.00002789,0.00000043,0.00001161,-
 0.00000433,-0.00651182,0.00010478,-0.01580272,0.00185361,-0.00148087,-
 0.00220899,-0.00072276,-0.00009006,0.00049449,0.01975711,-0.05434877,0
 .04541827,-0.00000284,0.00002509,0.00000024,-0.00000093,-0.00000304,-0
 .00000085,0.00000194,-0.00000604,-0.00000130,0.00000636,0.00001133,-0.
 00000408,-0.00000262,-0.00004247,-0.00000189,-0.00000279,-0.00000298,0
 .00000098,0.00000725,0.00001294,0.00000827,0.00000192,-0.00000237,0.00
 000131,-0.00000616,-0.00000425,0.00000298,-0.00001556,0.00000722,0.000
 01393,-0.00001958,-0.00001644,0.00004482,0.00000489,0.00001202,0.00000
 276,-0.00002318,-0.00000370,0.00001081,-0.00000671,-0.00000302,0.00001
 621,-0.00005030,0.00031708,-0.00015475,-0.00024035,0.00050101,-0.00100
 150,0.00020313,-0.00002466,0.00023092,0.00005555,0.00020202,0.00012675
 ,0.00009431,0.00005273,0.00006359,-0.00010096,-0.00012703,0.00002765,-
 0.00320076,0.00113064,-0.00905328,-0.02372661,0.05578335,0.00005506,0.
 00004116,-0.00001094,-0.00006906,-0.00000041,0.00009144,0.00001481,-0.
 00005759,-0.00011590,-0.00000635,-0.00000924,0.00000885,0.00001841,0.0
 0003162,0.00000848,0.00000042,0.00000020,-0.00000003,0.00000609,0.0000
 0290,-0.00000460,0.00000042,-0.00000058,0.00000049,-0.00000055,0.00000
 019,0.00000053,-0.00000043,-0.00000042,-0.00000001,0.00000248,0.000000
 68,0.00000008,0.00000026,0.00000062,-0.00000007,0.00000063,0.00000115,
 -0.00000117,0.00000034,0.,0.,0.00000098,-0.00000036,-0.00000178,-0.000
 00085,-0.00000061,0.00000192,-0.00000106,-0.00000037,-0.00000018,-0.00
 000904,0.00000103,0.00000663,-0.00000476,-0.00000258,0.00000652,0.0000
 0834,-0.00000047,-0.00000848,-0.00000547,-0.00000017,0.00000461,-0.000
 00160,0.00000059,0.00000148,0.00000172,-0.00000099,0.00000026,0.000000
 93,0.00000245,0.00000058,-0.00004082,-0.00017497,0.00006734,0.00002141
 ,-0.00004650,-0.00001841,-0.00001035,-0.00005737,-0.00013010,-0.000427
 47,-0.00048594,0.00055179,0.00031176,0.00171798,0.00144476,-0.00001317
 ,-0.00000126,-0.00003223,0.00000570,-0.00004354,0.00000094,-0.00001538
 ,-0.00000781,-0.00007912,0.00002369,0.00004312,-0.00001044,-0.01041597
 ,0.00510922,-0.02177675,0.00389874,-0.00311915,-0.00261334,-0.00141192
 ,0.00006203,0.00062460,-0.09912445,0.04311491,-0.26469674,0.00000094,-
 0.00000712,0.00000762,0.00000091,-0.00001491,0.00001424,0.00000049,0.0
 0000250,0.00000226,-0.00000063,-0.00000202,0.00000672,0.00001073,0.000
 01501,0.00001962,-0.00000072,0.00000372,0.00000397,-0.00000766,-0.0000
 0824,-0.00000876,-0.00000085,0.00000531,-0.00000047,0.00000525,-0.0000
 0156,-0.00000133,-0.00000450,0.00001711,0.00002829,0.00000351,-0.00004
 613,0.00009419,0.00001011,0.00003920,0.00001035,-0.00006929,-0.0000034
 8,0.00001630,0.00000225,-0.00002749,0.00002930,0.00009656,0.00006931,0
 .00043435,-0.00071481,0.00005805,-0.00143868,-0.00001789,0.00000382,0.
 00024144,0.00081935,0.00020818,0.00034721,0.00001336,-0.00009165,0.000
 01946,0.00016784,-0.00020132,0.00036269,0.00112145,-0.00020931,0.00128
 827,0.10727251,-0.04608065,0.28918765,0.00033882,0.00039222,0.00002982
 ,-0.00043916,-0.00030617,0.00024222,0.00005773,0.00006155,-0.00031808,
 0.00000522,-0.00002563,0.00003752,0.00007341,-0.00004268,-0.00008289,0
 .00000047,0.00000135,0.00000124,0.00000717,0.00000109,0.00000026,-0.00
 000131,0.00000131,-0.00000328,-0.00000048,-0.00000026,0.00000001,0.000
 00066,0.00000096,-0.00000033,-0.00000364,-0.00000443,0.00000011,-0.000
 00293,-0.00000092,-0.00000305,0.00001266,0.00000250,0.00001523,-0.0000
 0256,0.00000111,-0.00000169,-0.00000114,-0.00000288,0.00000473,0.00000
 043,-0.00000109,-0.00000222,-0.00000093,0.00000355,-0.00000172,-0.0000
 1504,0.00000740,-0.00000181,-0.00000652,0.00000195,0.00000204,0.000018
 49,-0.00001113,-0.00000081,-0.00001351,-0.00006177,0.00001501,-0.00001
 779,0.00000653,0.00001517,-0.00001201,0.00000695,-0.00000837,-0.000031
 49,0.00000474,-0.00000194,0.00069032,0.00047428,0.00007208,-0.00005188
 ,-0.00008011,0.00002646,0.00049820,0.00010391,-0.00016486,-0.00125548,
 -0.00170453,-0.00037467,-0.00183095,0.00261028,0.00293677,-0.00001433,
 0.00007015,-0.00000598,-0.00002101,0.00006431,0.00000220,0.00008981,-0
 .00003376,-0.00002523,-0.00002379,0.00002332,-0.00004716,-0.00129171,0
 .01612056,-0.00343520,0.00011357,-0.00025003,-0.00065226,0.00001548,0.
 00093425,-0.00008002,-0.04732673,-0.01551844,0.00266190,0.00007605,0.0
 0003310,-0.00002248,0.00003259,0.00001961,-0.00000882,0.00001495,0.000
 01706,-0.00000542,0.00002109,-0.00000194,-0.00001706,-0.00000439,-0.00
 000451,0.00000721,-0.00000663,-0.00000689,-0.00001088,0.00001754,0.000
 00509,0.00000878,0.00001512,0.00001148,0.00000444,-0.00003079,-0.00000
 712,0.00000623,-0.00001747,-0.00001261,0.00000884,-0.00000939,-0.00000
 190,-0.00000137,-0.00000156,-0.00000425,-0.00000090,-0.00000824,-0.000
 00612,0.00002638,-0.00002672,-0.00001148,0.00002999,0.00017316,-0.0001
 5126,-0.00000682,-0.00010968,-0.00007573,-0.00009447,0.00004043,-0.000
 08545,0.00004394,-0.00004778,-0.00000644,-0.00009711,-0.00057717,0.000
 08334,0.00059161,0.00026680,-0.00014732,-0.00019755,0.00161465,-0.0297
 5316,0.00627812,-0.00009588,0.01325139,-0.00152239,0.04910530,0.000767
 62,-0.00004404,-0.00006077,-0.00065506,0.00002466,0.00027449,0.0000363
 1,0.00001543,-0.00027570,0.00001272,-0.00001548,0.00001954,0.00002512,
 -0.00001175,-0.00002431,0.00000012,0.00000186,0.00000079,0.00000870,-0
 .00000002,-0.00000060,-0.00000055,0.00000092,-0.00000260,-0.00000026,-
 0.00000004,0.00000037,0.00000041,0.00000059,-0.00000039,-0.00000372,-0
 .00000393,0.00000034,-0.00000248,-0.00000044,-0.00000169,0.00001254,0.
 00000286,0.00001238,-0.00000257,0.00000156,-0.00000162,-0.00000040,-0.
 00000230,0.00000379,0.00000092,-0.00000111,-0.00000091,-0.00000148,0.0
 0000311,-0.00000193,-0.00001922,0.00000955,0.00000020,-0.00000889,0.00
 000183,0.00000397,0.00002285,-0.00001327,-0.00000400,-0.00000346,-0.00
 002643,0.00002960,-0.00002180,0.00000520,0.00001760,-0.00001188,0.0000
 0538,-0.00000728,-0.00001670,0.00000295,-0.00000354,-0.00142772,0.0001
 4453,0.00008622,0.00016842,-0.00029197,-0.00007306,0.00018412,0.000007
 20,-0.00014325,0.00091643,-0.00023202,-0.00041737,0.00100741,-0.002288
 85,-0.00209032,0.00005228,-0.00008755,-0.00013093,0.00011313,-0.000102
 12,0.00013654,0.00000288,-0.00003615,-0.00005356,0.00012045,-0.0001259
 8,0.00006349,-0.00176556,-0.01500441,0.00522073,-0.00020266,0.00004218
 ,0.00089071,-0.00142164,0.00004062,0.00123627,-0.01252825,-0.30862656,
 0.04894002,0.00006074,-0.00013389,0.00003487,0.00003230,-0.00005444,0.
 00003569,-0.00001320,0.00002120,0.00000701,-0.00001758,-0.00006169,0.0
 0005951,0.00000885,0.00001872,0.00000829,0.00001599,0.00001973,-0.0000
 0319,-0.00003273,-0.00006804,-0.00005224,-0.00001478,0.00001468,0.0000
 0401,0.00005784,0.00003389,0.00001597,0.00006448,-0.00000128,0.0000138
 3,-0.00000887,0.00002226,-0.00000663,-0.00001229,0.00000956,0.00001428
 ,0.00000278,0.00004205,-0.00003120,0.00005453,-0.00002550,-0.00008910,
 -0.00015516,0.00055942,-0.00041110,0.00004623,0.00038127,-0.00013182,0
 .00008918,0.00001252,0.00000016,0.00009106,-0.00003532,-0.00006067,0.0
 0027178,0.00101260,-0.00012828,-0.00014090,0.00055459,-0.00013609,0.00
 064000,-0.00718591,0.00132636,-0.00040302,-0.00388414,0.00015213,0.014
 00467,0.33535171,0.00002991,-0.00001875,-0.00000906,-0.00004797,0.0000
 2813,-0.00002220,0.00000841,-0.00004095,-0.00000603,-0.00000242,-0.000
 00297,-0.00000178,-0.00002234,0.00002890,0.00003201,-0.00000018,0.0000
 0002,0.00000040,-0.00000153,-0.00000074,0.00000072,-0.00000047,0.00000
 034,-0.00000023,0.00000018,0.00000009,-0.00000030,0.00000021,-0.000000
 02,0.00000005,-0.00000049,0.00000024,0.00000045,0.00000044,0.00000019,
 0.00000049,-0.00000131,-0.00000069,-0.00000065,0.00000005,-0.00000010,
 0.00000033,-0.00000012,0.00000022,0.00000056,0.00000018,-0.00000021,-0
 .00000103,0.00000057,-0.00000014,0.00000020,0.00000473,-0.00000115,-0.
 00000108,0.00000245,0.00000045,-0.00000196,-0.00000531,0.00000165,0.00
 000202,0.00000676,0.00002433,0.00000930,0.00000058,0.00000012,-0.00000
 272,0.00000293,-0.00000223,0.00000260,0.00001225,-0.00000100,-0.000000
 61,-0.00095351,-0.00051945,0.00005954,0.00015263,-0.00017624,-0.000037
 97,-0.00003131,-0.00004781,-0.00002862,0.00072080,0.00028674,0.0005578
 5,0.00299713,-0.00311906,-0.00216638,-0.00000470,-0.00004586,-0.000042
 60,0.00003486,-0.00004046,0.00002750,-0.00007283,0.00000121,-0.0000587
 0,0.00001014,-0.00001183,0.00006129,-0.00139386,-0.02160100,0.00309253
 ,-0.00022915,-0.00019997,0.00060857,-0.00033134,-0.00057925,0.00058238
 ,0.00221731,0.05229596,-0.05702590,-0.00001431,-0.00008970,0.00004550,
 -0.00000354,-0.00005030,0.00002184,-0.00001168,-0.00000215,0.00000773,
 -0.00001267,-0.00001265,0.00002162,0.00000928,0.00000595,0.00000194,0.
 00000600,0.00000426,0.00000107,-0.00001185,-0.00001535,-0.00001497,-0.
 00001290,-0.00000065,-0.00000242,0.00002959,0.00002149,0.00000365,0.00
 002197,0.00000787,0.00000644,0.00000251,0.00000578,0.00002804,-0.00000
 388,-0.00000604,-0.00000395,0.00001037,0.00001164,-0.00002047,0.000018
 72,0.00000261,-0.00003863,-0.00002131,0.00006454,-0.00051386,0.0000424
 0,0.00024007,0.00026963,-0.00000870,-0.00003176,-0.00006013,0.00005018
 ,0.00016577,-0.00000598,0.00033058,0.00006882,-0.00005943,-0.00031896,
 0.00000996,-0.00000301,-0.00020920,-0.00055600,-0.00122950,0.00287518,
 0.02816210,-0.00398569,-0.00587147,-0.05426499,0.05989963\\0.00001514,
 -0.00000253,0.00000856,-0.00000865,-0.00000777,-0.00000002,0.00000271,
 -0.00000008,-0.00001194,0.00000324,-0.00000198,0.00000195,-0.00000194,
 -0.00000100,0.00000385,-0.00000146,-0.00000624,0.00000565,0.00000008,-
 0.00000137,0.00000237,-0.00000274,-0.00000498,0.00000388,-0.00000200,-
 0.00000654,0.00000343,-0.00000101,-0.00000704,0.00000307,-0.00000184,-
 0.00000332,0.00000318,0.00000094,-0.00000302,0.00000161,-0.00000016,0.
 00000179,0.00000542,-0.00000323,-0.00000403,0.00000339,-0.00000184,-0.
 00000410,0.00000387,-0.00000218,-0.00000267,0.00000197,-0.00000197,-0.
 00000365,0.00000282,0.00000042,-0.00000628,-0.00000107,0.00000214,-0.0
 0000615,0.00000552,-0.00000070,-0.00000606,0.00000216,-0.00000268,-0.0
 0000673,0.00000491,0.00000142,-0.00000302,0.00000191,-0.00000005,-0.00
 000408,0.00000095,0.00000047,-0.00000394,0.00000198,-0.00000120,0.0000
 0373,-0.00000154,0.00000235,0.00000374,-0.00000461,0.00000429,-0.00000
 178,0.00001016,-0.00000477,0.00000050,-0.00000952,0.00000112,0.0000056
 4,0.00000134,0.00000462,0.00000018,-0.00000802,0.00000161,0.00000179,-
 0.00000492,-0.00000077,0.00000586,-0.00000188,-0.00000016,0.00000415,-
 0.00000178,-0.00000087,0.00000371,-0.00000176,-0.00000334,0.00000279,-
 0.00000182,-0.00000081,0.00000141,-0.00000203,-0.00000277,0.00000218,-
 0.00000058,0.00000236,0.00000302,-0.00000252,0.00000291,0.00000385,-0.
 00000280,0.00000316,-0.00000012,0.00000022,0.00000361,0.00000078,-0.00
 000115,0.00000360,0.00000041,-0.00000058,0.00000011,0.00000149,-0.0000
 0027,0.00000353,0.00000154,-0.00000061,0.00000189,-0.00000061,-0.00000
 135,-0.00000001,0.00000593,-0.00000346,0.00000216,0.00000561,-0.000003
 16,0.00000115,0.00000396,-0.00000301,0.00000146,0.00000410,-0.00000265
 ,-0.00000033,0.00000347,-0.00000258,0.00000070,0.00000535,-0.00000305,
 -0.00000356,0.00000158,0.00000005,-0.00000366,0.00000307,0.00000065,-0
 .00000207,0.00000138,-0.00000091,-0.00000116,0.00000447,-0.00000191,-0
 .00000436,0.00000417,-0.00000076,-0.00000101,0.00000555,-0.00000247,-0
 .00000044,0.00000085,0.00000012,-0.00000046,0.00000164,-0.00000029,-0.
 00000298,-0.00000059,0.00000004\\\@


 I take a simple view of life: keep your eyes open and get on with it.
 -- Laurence Olivier
 Job cpu time:       3 days  9 hours  2 minutes 55.3 seconds.
 File lengths (MBytes):  RWF=   4920 Int=      0 D2E=      0 Chk=     55 Scr=      1
 Normal termination of Gaussian 09 at Fri Nov 26 00:58:04 2021.
