 Entering Gaussian System, Link 0=g09
 Input=reag_NHC28_et.gjf
 Output=reag_NHC28_et.log
 Initial command:
 /usr/local/gqt/g09/l1.exe "/usr/local/gqt/lixogaussian/Gau-23317.inp" -scrdir="/usr/local/gqt/lixogaussian/"
 Entering Link 1 = /usr/local/gqt/g09/l1.exe PID=     23319.
  
 Copyright (c) 1988,1990,1992,1993,1995,1998,2003,2009,2013,
            Gaussian, Inc.  All Rights Reserved.
  
 This is part of the Gaussian(R) 09 program.  It is based on
 the Gaussian(R) 03 system (copyright 2003, Gaussian, Inc.),
 the Gaussian(R) 98 system (copyright 1998, Gaussian, Inc.),
 the Gaussian(R) 94 system (copyright 1995, Gaussian, Inc.),
 the Gaussian 92(TM) system (copyright 1992, Gaussian, Inc.),
 the Gaussian 90(TM) system (copyright 1990, Gaussian, Inc.),
 the Gaussian 88(TM) system (copyright 1988, Gaussian, Inc.),
 the Gaussian 86(TM) system (copyright 1986, Carnegie Mellon
 University), and the Gaussian 82(TM) system (copyright 1983,
 Carnegie Mellon University). Gaussian is a federally registered
 trademark of Gaussian, Inc.
  
 This software contains proprietary and confidential information,
 including trade secrets, belonging to Gaussian, Inc.
  
 This software is provided under written license and may be
 used, copied, transmitted, or stored only in accord with that
 written license.
  
 The following legend is applicable only to US Government
 contracts under FAR:
  
                    RESTRICTED RIGHTS LEGEND
  
 Use, reproduction and disclosure by the US Government is
 subject to restrictions as set forth in subparagraphs (a)
 and (c) of the Commercial Computer Software - Restricted
 Rights clause in FAR 52.227-19.
  
 Gaussian, Inc.
 340 Quinnipiac St., Bldg. 40, Wallingford CT 06492
  
  
 ---------------------------------------------------------------
 Warning -- This program may not be used in any manner that
 competes with the business of Gaussian, Inc. or will provide
 assistance to any competitor of Gaussian, Inc.  The licensee
 of this program is prohibited from giving any competitor of
 Gaussian, Inc. access to this program.  By using this program,
 the user acknowledges that Gaussian, Inc. is engaged in the
 business of creating and licensing software in the field of
 computational chemistry and represents and warrants to the
 licensee that it is not a competitor of Gaussian, Inc. and that
 it will not use this program in any manner prohibited above.
 ---------------------------------------------------------------
  

 Cite this work as:
 Gaussian 09, Revision D.01,
 M. J. Frisch, G. W. Trucks, H. B. Schlegel, G. E. Scuseria, 
 M. A. Robb, J. R. Cheeseman, G. Scalmani, V. Barone, B. Mennucci, 
 G. A. Petersson, H. Nakatsuji, M. Caricato, X. Li, H. P. Hratchian, 
 A. F. Izmaylov, J. Bloino, G. Zheng, J. L. Sonnenberg, M. Hada, 
 M. Ehara, K. Toyota, R. Fukuda, J. Hasegawa, M. Ishida, T. Nakajima, 
 Y. Honda, O. Kitao, H. Nakai, T. Vreven, J. A. Montgomery, Jr., 
 J. E. Peralta, F. Ogliaro, M. Bearpark, J. J. Heyd, E. Brothers, 
 K. N. Kudin, V. N. Staroverov, T. Keith, R. Kobayashi, J. Normand, 
 K. Raghavachari, A. Rendell, J. C. Burant, S. S. Iyengar, J. Tomasi, 
 M. Cossi, N. Rega, J. M. Millam, M. Klene, J. E. Knox, J. B. Cross, 
 V. Bakken, C. Adamo, J. Jaramillo, R. Gomperts, R. E. Stratmann, 
 O. Yazyev, A. J. Austin, R. Cammi, C. Pomelli, J. W. Ochterski, 
 R. L. Martin, K. Morokuma, V. G. Zakrzewski, G. A. Voth, 
 P. Salvador, J. J. Dannenberg, S. Dapprich, A. D. Daniels, 
 O. Farkas, J. B. Foresman, J. V. Ortiz, J. Cioslowski, 
 and D. J. Fox, Gaussian, Inc., Wallingford CT, 2013.
 
 ******************************************
 Gaussian 09:  ES64L-G09RevD.01 24-Apr-2013
                15-Dec-2021 
 ******************************************
 %nprocshared=16
 Will use up to   16 processors via shared memory.
 %mem=50GB
 %chk=reag_NHC28_et.chk
 ------------------------------------------------------------
 #p opt freq n12sx/6-311+g(d,p) scrf=(iefpcm,solvent=ethanol)
 ------------------------------------------------------------
 1/14=-1,18=20,19=15,26=3,38=1/1,3;
 2/9=110,12=2,17=6,18=5,40=1/2;
 3/5=4,6=6,7=111,11=2,16=1,25=1,30=1,70=2201,71=1,72=4,74=-69/1,2,3;
 4//1;
 5/5=2,38=5,53=4/2;
 6/7=2,8=2,9=2,10=2,28=1/1;
 7//1,2,3,16;
 1/14=-1,18=20,19=15,26=3/3(2);
 2/9=110/2;
 99//99;
 2/9=110/2;
 3/5=4,6=6,7=111,11=2,16=1,25=1,30=1,70=2205,71=1,72=4,74=-69/1,2,3;
 4/5=5,16=3,69=1/1;
 5/5=2,38=5,53=4/2;
 7//1,2,3,16;
 1/14=-1,18=20,19=15,26=3/3(-5);
 2/9=110/2;
 6/7=2,8=2,9=2,10=2,19=2,28=1/1;
 99/9=1/99;
 Leave Link    1 at Wed Dec 15 21:49:05 2021, MaxMem=  6710886400 cpu:         0.7
 (Enter /usr/local/gqt/g09/l101.exe)
 -----
 TITLE
 -----
 Symbolic Z-matrix:
 Charge =  0 Multiplicity = 1
 1                    -0.37611   0.3208    0.52245 
 8                    -1.34694   0.44768   0.69052 
 6                    -1.55721   0.66336   2.06538 
 1                    -1.1507   -0.16765   2.65162 
 1                    -1.03804   1.56948   2.39665 
 6                    -6.14386   0.77042  -0.5488 
 6                    -3.84375  -0.8129   -1.26472 
 6                    -5.02634   1.34402  -1.40374 
 1                    -6.48255   1.46246   0.21777 
 1                    -7.01598   0.55572  -1.17087 
 6                    -4.39464   0.22405  -2.20794 
 1                    -3.52774  -1.7123   -1.78378 
 1                    -3.0042   -0.41906  -0.6933 
 1                    -5.42273   2.12324  -2.05081 
 1                    -4.26984   1.80868  -0.77037 
 1                    -3.57537   0.58976  -2.82462 
 1                    -5.13126  -0.22269  -2.87744 
 8                    -4.8192   -1.27338  -0.29999 
 8                    -6.50741  -0.95618   1.04573 
 6                    -5.83108  -0.53148   0.13849 
 6                    -3.03571   0.7987    2.34108 
 1                    -3.21477   0.97079   3.40129 
 1                    -3.45544   1.63641   1.78558 
 1                    -3.56591  -0.10598   2.0484 
 7                     3.68653  -0.52167   0.27925 
 6                     3.67975   0.81338   0.0636 
 6                     2.33092   1.22994   0.05017 
 6                     1.48107   0.09849   0.2962 
 7                     2.35325  -0.8917    0.44268 
 6                     4.73599   1.70673  -0.12717 
 6                     4.4041    3.02635  -0.34819 
 6                     3.06861   3.46523  -0.37898 
 6                     2.0344    2.577    -0.18078 
 6                     4.79772  -1.36447   0.63668 
 6                     2.05384  -2.28816   0.66558 
 1                     5.76741   1.38972  -0.1055 
 1                     5.19543   3.74545  -0.50195 
 1                     2.861     4.50951  -0.55681 
 1                     1.00568   2.90696  -0.19878 
 1                     5.70301  -0.90241   0.25837 
 1                     4.88601  -1.4795    1.71656 
 1                     4.7035   -2.3414    0.17347 
 1                     2.37145  -2.8908   -0.18233 
 1                     2.53867  -2.65092   1.56832 
 1                     0.98104  -2.36311   0.77836 
 
 Add virtual bond connecting atoms C28        and H1         Dist= 3.56D+00.
 Add virtual bond connecting atoms H13        and O2         Dist= 4.40D+00.
 NAtoms=     45 NQM=       45 NQMF=       0 NMMI=      0 NMMIF=      0
                NMic=       0 NMicF=      0.
                    Isotopes and Nuclear Properties:
 (Nuclear quadrupole moments (NQMom) in fm**2, nuclear magnetic moments (NMagM)
  in nuclear magnetons)

  Atom         1           2           3           4           5           6           7           8           9          10
 IAtWgt=           1          16          12           1           1          12          12          12           1           1
 AtmWgt=   1.0078250  15.9949146  12.0000000   1.0078250   1.0078250  12.0000000  12.0000000  12.0000000   1.0078250   1.0078250
 NucSpn=           1           0           0           1           1           0           0           0           1           1
 AtZEff=   0.0000000   0.0000000   0.0000000   0.0000000   0.0000000   0.0000000   0.0000000   0.0000000   0.0000000   0.0000000
 NQMom=    0.0000000   0.0000000   0.0000000   0.0000000   0.0000000   0.0000000   0.0000000   0.0000000   0.0000000   0.0000000
 NMagM=    2.7928460   0.0000000   0.0000000   2.7928460   2.7928460   0.0000000   0.0000000   0.0000000   2.7928460   2.7928460
 AtZNuc=   1.0000000   8.0000000   6.0000000   1.0000000   1.0000000   6.0000000   6.0000000   6.0000000   1.0000000   1.0000000

  Atom        11          12          13          14          15          16          17          18          19          20
 IAtWgt=          12           1           1           1           1           1           1          16          16          12
 AtmWgt=  12.0000000   1.0078250   1.0078250   1.0078250   1.0078250   1.0078250   1.0078250  15.9949146  15.9949146  12.0000000
 NucSpn=           0           1           1           1           1           1           1           0           0           0
 AtZEff=   0.0000000   0.0000000   0.0000000   0.0000000   0.0000000   0.0000000   0.0000000   0.0000000   0.0000000   0.0000000
 NQMom=    0.0000000   0.0000000   0.0000000   0.0000000   0.0000000   0.0000000   0.0000000   0.0000000   0.0000000   0.0000000
 NMagM=    0.0000000   2.7928460   2.7928460   2.7928460   2.7928460   2.7928460   2.7928460   0.0000000   0.0000000   0.0000000
 AtZNuc=   6.0000000   1.0000000   1.0000000   1.0000000   1.0000000   1.0000000   1.0000000   8.0000000   8.0000000   6.0000000

  Atom        21          22          23          24          25          26          27          28          29          30
 IAtWgt=          12           1           1           1          14          12          12          12          14          12
 AtmWgt=  12.0000000   1.0078250   1.0078250   1.0078250  14.0030740  12.0000000  12.0000000  12.0000000  14.0030740  12.0000000
 NucSpn=           0           1           1           1           2           0           0           0           2           0
 AtZEff=   0.0000000   0.0000000   0.0000000   0.0000000   0.0000000   0.0000000   0.0000000   0.0000000   0.0000000   0.0000000
 NQMom=    0.0000000   0.0000000   0.0000000   0.0000000   2.0440000   0.0000000   0.0000000   0.0000000   2.0440000   0.0000000
 NMagM=    0.0000000   2.7928460   2.7928460   2.7928460   0.4037610   0.0000000   0.0000000   0.0000000   0.4037610   0.0000000
 AtZNuc=   6.0000000   1.0000000   1.0000000   1.0000000   7.0000000   6.0000000   6.0000000   6.0000000   7.0000000   6.0000000

  Atom        31          32          33          34          35          36          37          38          39          40
 IAtWgt=          12          12          12          12          12           1           1           1           1           1
 AtmWgt=  12.0000000  12.0000000  12.0000000  12.0000000  12.0000000   1.0078250   1.0078250   1.0078250   1.0078250   1.0078250
 NucSpn=           0           0           0           0           0           1           1           1           1           1
 AtZEff=   0.0000000   0.0000000   0.0000000   0.0000000   0.0000000   0.0000000   0.0000000   0.0000000   0.0000000   0.0000000
 NQMom=    0.0000000   0.0000000   0.0000000   0.0000000   0.0000000   0.0000000   0.0000000   0.0000000   0.0000000   0.0000000
 NMagM=    0.0000000   0.0000000   0.0000000   0.0000000   0.0000000   2.7928460   2.7928460   2.7928460   2.7928460   2.7928460
 AtZNuc=   6.0000000   6.0000000   6.0000000   6.0000000   6.0000000   1.0000000   1.0000000   1.0000000   1.0000000   1.0000000

  Atom        41          42          43          44          45
 IAtWgt=           1           1           1           1           1
 AtmWgt=   1.0078250   1.0078250   1.0078250   1.0078250   1.0078250
 NucSpn=           1           1           1           1           1
 AtZEff=   0.0000000   0.0000000   0.0000000   0.0000000   0.0000000
 NQMom=    0.0000000   0.0000000   0.0000000   0.0000000   0.0000000
 NMagM=    2.7928460   2.7928460   2.7928460   2.7928460   2.7928460
 AtZNuc=   1.0000000   1.0000000   1.0000000   1.0000000   1.0000000
 Leave Link  101 at Wed Dec 15 21:49:06 2021, MaxMem=  6710886400 cpu:         7.0
 (Enter /usr/local/gqt/g09/l103.exe)

 GradGradGradGradGradGradGradGradGradGradGradGradGradGradGradGradGradGrad
 Berny optimization.
 Initialization pass.
                           ----------------------------
                           !    Initial Parameters    !
                           ! (Angstroms and Degrees)  !
 --------------------------                            --------------------------
 ! Name  Definition              Value          Derivative Info.                !
 --------------------------------------------------------------------------------
 ! R1    R(1,2)                  0.9934         estimate D2E/DX2                !
 ! R2    R(1,28)                 1.8841         estimate D2E/DX2                !
 ! R3    R(2,3)                  1.4075         estimate D2E/DX2                !
 ! R4    R(2,13)                 2.3265         estimate D2E/DX2                !
 ! R5    R(3,4)                  1.0952         estimate D2E/DX2                !
 ! R6    R(3,5)                  1.0956         estimate D2E/DX2                !
 ! R7    R(3,21)                 1.5101         estimate D2E/DX2                !
 ! R8    R(6,8)                  1.5195         estimate D2E/DX2                !
 ! R9    R(6,9)                  1.0869         estimate D2E/DX2                !
 ! R10   R(6,10)                 1.0925         estimate D2E/DX2                !
 ! R11   R(6,20)                 1.505          estimate D2E/DX2                !
 ! R12   R(7,11)                 1.5061         estimate D2E/DX2                !
 ! R13   R(7,12)                 1.0855         estimate D2E/DX2                !
 ! R14   R(7,13)                 1.0893         estimate D2E/DX2                !
 ! R15   R(7,18)                 1.4472         estimate D2E/DX2                !
 ! R16   R(8,11)                 1.5166         estimate D2E/DX2                !
 ! R17   R(8,14)                 1.0877         estimate D2E/DX2                !
 ! R18   R(8,15)                 1.0906         estimate D2E/DX2                !
 ! R19   R(11,16)                1.0887         estimate D2E/DX2                !
 ! R20   R(11,17)                1.0911         estimate D2E/DX2                !
 ! R21   R(18,20)                1.3291         estimate D2E/DX2                !
 ! R22   R(19,20)                1.2087         estimate D2E/DX2                !
 ! R23   R(21,22)                1.0889         estimate D2E/DX2                !
 ! R24   R(21,23)                1.0893         estimate D2E/DX2                !
 ! R25   R(21,24)                1.0887         estimate D2E/DX2                !
 ! R26   R(25,26)                1.3524         estimate D2E/DX2                !
 ! R27   R(25,29)                1.3933         estimate D2E/DX2                !
 ! R28   R(25,34)                1.4397         estimate D2E/DX2                !
 ! R29   R(26,27)                1.4118         estimate D2E/DX2                !
 ! R30   R(26,30)                1.3965         estimate D2E/DX2                !
 ! R31   R(27,28)                1.4363         estimate D2E/DX2                !
 ! R32   R(27,33)                1.3985         estimate D2E/DX2                !
 ! R33   R(28,29)                1.3276         estimate D2E/DX2                !
 ! R34   R(29,35)                1.4455         estimate D2E/DX2                !
 ! R35   R(30,31)                1.3785         estimate D2E/DX2                !
 ! R36   R(30,36)                1.0793         estimate D2E/DX2                !
 ! R37   R(31,32)                1.4061         estimate D2E/DX2                !
 ! R38   R(31,37)                1.0803         estimate D2E/DX2                !
 ! R39   R(32,33)                1.3776         estimate D2E/DX2                !
 ! R40   R(32,38)                1.0795         estimate D2E/DX2                !
 ! R41   R(33,39)                1.0805         estimate D2E/DX2                !
 ! R42   R(34,40)                1.0845         estimate D2E/DX2                !
 ! R43   R(34,41)                1.0896         estimate D2E/DX2                !
 ! R44   R(34,42)                1.0853         estimate D2E/DX2                !
 ! R45   R(35,43)                1.0877         estimate D2E/DX2                !
 ! R46   R(35,44)                1.087          estimate D2E/DX2                !
 ! R47   R(35,45)                1.0813         estimate D2E/DX2                !
 ! A1    A(1,2,3)              109.3192         estimate D2E/DX2                !
 ! A2    A(1,2,13)             123.2253         estimate D2E/DX2                !
 ! A3    A(3,2,13)             122.12           estimate D2E/DX2                !
 ! A4    A(2,3,4)              110.5572         estimate D2E/DX2                !
 ! A5    A(2,3,5)              110.5673         estimate D2E/DX2                !
 ! A6    A(2,3,21)             109.7759         estimate D2E/DX2                !
 ! A7    A(4,3,5)              106.8467         estimate D2E/DX2                !
 ! A8    A(4,3,21)             109.4928         estimate D2E/DX2                !
 ! A9    A(5,3,21)             109.5506         estimate D2E/DX2                !
 ! A10   A(8,6,9)              112.6849         estimate D2E/DX2                !
 ! A11   A(8,6,10)             109.9318         estimate D2E/DX2                !
 ! A12   A(8,6,20)             115.5084         estimate D2E/DX2                !
 ! A13   A(9,6,10)             106.1388         estimate D2E/DX2                !
 ! A14   A(9,6,20)             107.066          estimate D2E/DX2                !
 ! A15   A(10,6,20)            104.8276         estimate D2E/DX2                !
 ! A16   A(11,7,12)            112.1782         estimate D2E/DX2                !
 ! A17   A(11,7,13)            111.1929         estimate D2E/DX2                !
 ! A18   A(11,7,18)            112.9556         estimate D2E/DX2                !
 ! A19   A(12,7,13)            109.0298         estimate D2E/DX2                !
 ! A20   A(12,7,18)            104.5587         estimate D2E/DX2                !
 ! A21   A(13,7,18)            106.5508         estimate D2E/DX2                !
 ! A22   A(6,8,11)             109.0215         estimate D2E/DX2                !
 ! A23   A(6,8,14)             109.7032         estimate D2E/DX2                !
 ! A24   A(6,8,15)             110.1354         estimate D2E/DX2                !
 ! A25   A(11,8,14)            111.4316         estimate D2E/DX2                !
 ! A26   A(11,8,15)            109.491          estimate D2E/DX2                !
 ! A27   A(14,8,15)            107.0418         estimate D2E/DX2                !
 ! A28   A(7,11,8)             109.19           estimate D2E/DX2                !
 ! A29   A(7,11,16)            108.1054         estimate D2E/DX2                !
 ! A30   A(7,11,17)            110.446          estimate D2E/DX2                !
 ! A31   A(8,11,16)            111.4537         estimate D2E/DX2                !
 ! A32   A(8,11,17)            110.2755         estimate D2E/DX2                !
 ! A33   A(16,11,17)           107.3384         estimate D2E/DX2                !
 ! A34   A(7,18,20)            123.7432         estimate D2E/DX2                !
 ! A35   A(6,20,18)            119.3678         estimate D2E/DX2                !
 ! A36   A(6,20,19)            122.035          estimate D2E/DX2                !
 ! A37   A(18,20,19)           118.5218         estimate D2E/DX2                !
 ! A38   A(3,21,22)            110.6665         estimate D2E/DX2                !
 ! A39   A(3,21,23)            110.6772         estimate D2E/DX2                !
 ! A40   A(3,21,24)            110.6881         estimate D2E/DX2                !
 ! A41   A(22,21,23)           108.1573         estimate D2E/DX2                !
 ! A42   A(22,21,24)           108.2394         estimate D2E/DX2                !
 ! A43   A(23,21,24)           108.3192         estimate D2E/DX2                !
 ! A44   A(26,25,29)           106.0273         estimate D2E/DX2                !
 ! A45   A(26,25,34)           128.4145         estimate D2E/DX2                !
 ! A46   A(29,25,34)           123.6397         estimate D2E/DX2                !
 ! A47   A(25,26,27)           107.313          estimate D2E/DX2                !
 ! A48   A(25,26,30)           130.5059         estimate D2E/DX2                !
 ! A49   A(27,26,30)           122.1808         estimate D2E/DX2                !
 ! A50   A(26,27,28)           109.3449         estimate D2E/DX2                !
 ! A51   A(26,27,33)           119.2329         estimate D2E/DX2                !
 ! A52   A(28,27,33)           131.4222         estimate D2E/DX2                !
 ! A53   A(1,28,27)            120.7217         estimate D2E/DX2                !
 ! A54   A(1,28,29)            136.2462         estimate D2E/DX2                !
 ! A55   A(27,28,29)           102.575          estimate D2E/DX2                !
 ! A56   A(25,29,28)           114.6844         estimate D2E/DX2                !
 ! A57   A(25,29,35)           118.2213         estimate D2E/DX2                !
 ! A58   A(28,29,35)           126.9752         estimate D2E/DX2                !
 ! A59   A(26,30,31)           116.8835         estimate D2E/DX2                !
 ! A60   A(26,30,36)           122.1534         estimate D2E/DX2                !
 ! A61   A(31,30,36)           120.9631         estimate D2E/DX2                !
 ! A62   A(30,31,32)           122.0708         estimate D2E/DX2                !
 ! A63   A(30,31,37)           118.9256         estimate D2E/DX2                !
 ! A64   A(32,31,37)           119.0036         estimate D2E/DX2                !
 ! A65   A(31,32,33)           120.5725         estimate D2E/DX2                !
 ! A66   A(31,32,38)           119.2247         estimate D2E/DX2                !
 ! A67   A(33,32,38)           120.2026         estimate D2E/DX2                !
 ! A68   A(27,33,32)           119.0534         estimate D2E/DX2                !
 ! A69   A(27,33,39)           119.9186         estimate D2E/DX2                !
 ! A70   A(32,33,39)           121.0278         estimate D2E/DX2                !
 ! A71   A(25,34,40)           107.9538         estimate D2E/DX2                !
 ! A72   A(25,34,41)           111.7402         estimate D2E/DX2                !
 ! A73   A(25,34,42)           110.7305         estimate D2E/DX2                !
 ! A74   A(40,34,41)           108.8489         estimate D2E/DX2                !
 ! A75   A(40,34,42)           107.8842         estimate D2E/DX2                !
 ! A76   A(41,34,42)           109.5738         estimate D2E/DX2                !
 ! A77   A(29,35,43)           110.7677         estimate D2E/DX2                !
 ! A78   A(29,35,44)           110.9825         estimate D2E/DX2                !
 ! A79   A(29,35,45)           106.7713         estimate D2E/DX2                !
 ! A80   A(43,35,44)           109.4063         estimate D2E/DX2                !
 ! A81   A(43,35,45)           109.4277         estimate D2E/DX2                !
 ! A82   A(44,35,45)           109.4365         estimate D2E/DX2                !
 ! A83   L(2,1,28,39,-1)       179.9709         estimate D2E/DX2                !
 ! A84   L(2,13,7,9,-1)        175.6776         estimate D2E/DX2                !
 ! A85   L(2,1,28,39,-2)       176.8578         estimate D2E/DX2                !
 ! A86   L(2,13,7,9,-2)        183.2122         estimate D2E/DX2                !
 ! D1    D(1,2,7,11)           -99.5938         estimate D2E/DX2                !
 ! D2    D(1,2,7,12)            26.9466         estimate D2E/DX2                !
 ! D3    D(1,2,7,18)           138.6817         estimate D2E/DX2                !
 ! D4    D(3,2,7,11)           109.188          estimate D2E/DX2                !
 ! D5    D(3,2,7,12)          -124.2716         estimate D2E/DX2                !
 ! D6    D(3,2,7,18)           -12.5365         estimate D2E/DX2                !
 ! D7    D(3,2,28,27)          -88.7761         estimate D2E/DX2                !
 ! D8    D(3,2,28,29)           80.3086         estimate D2E/DX2                !
 ! D9    D(13,2,28,27)         117.0757         estimate D2E/DX2                !
 ! D10   D(13,2,28,29)         -73.8396         estimate D2E/DX2                !
 ! D11   D(1,2,3,4)            -56.6894         estimate D2E/DX2                !
 ! D12   D(1,2,3,5)             61.4301         estimate D2E/DX2                !
 ! D13   D(1,2,3,21)          -177.5903         estimate D2E/DX2                !
 ! D14   D(13,2,3,4)            98.221          estimate D2E/DX2                !
 ! D15   D(13,2,3,5)          -143.6595         estimate D2E/DX2                !
 ! D16   D(13,2,3,21)          -22.6799         estimate D2E/DX2                !
 ! D17   D(2,3,21,22)         -179.74           estimate D2E/DX2                !
 ! D18   D(2,3,21,23)          -59.849          estimate D2E/DX2                !
 ! D19   D(2,3,21,24)           60.259          estimate D2E/DX2                !
 ! D20   D(4,3,21,22)           58.719          estimate D2E/DX2                !
 ! D21   D(4,3,21,23)          178.61           estimate D2E/DX2                !
 ! D22   D(4,3,21,24)          -61.282          estimate D2E/DX2                !
 ! D23   D(5,3,21,22)          -58.1494         estimate D2E/DX2                !
 ! D24   D(5,3,21,23)           61.7416         estimate D2E/DX2                !
 ! D25   D(5,3,21,24)         -178.1504         estimate D2E/DX2                !
 ! D26   D(9,6,8,11)           166.5411         estimate D2E/DX2                !
 ! D27   D(9,6,8,14)           -71.1835         estimate D2E/DX2                !
 ! D28   D(9,6,8,15)            46.3884         estimate D2E/DX2                !
 ! D29   D(10,6,8,11)          -75.2918         estimate D2E/DX2                !
 ! D30   D(10,6,8,14)           46.9836         estimate D2E/DX2                !
 ! D31   D(10,6,8,15)          164.5555         estimate D2E/DX2                !
 ! D32   D(20,6,8,11)           43.0445         estimate D2E/DX2                !
 ! D33   D(20,6,8,14)          165.3199         estimate D2E/DX2                !
 ! D34   D(20,6,8,15)          -77.1082         estimate D2E/DX2                !
 ! D35   D(8,6,20,18)          -18.4715         estimate D2E/DX2                !
 ! D36   D(8,6,20,19)          164.7348         estimate D2E/DX2                !
 ! D37   D(9,6,20,18)         -144.8761         estimate D2E/DX2                !
 ! D38   D(9,6,20,19)           38.3302         estimate D2E/DX2                !
 ! D39   D(10,6,20,18)         102.6629         estimate D2E/DX2                !
 ! D40   D(10,6,20,19)         -74.1308         estimate D2E/DX2                !
 ! D41   D(12,7,11,8)          170.5304         estimate D2E/DX2                !
 ! D42   D(12,7,11,16)         -68.0544         estimate D2E/DX2                !
 ! D43   D(12,7,11,17)          49.1078         estimate D2E/DX2                !
 ! D44   D(13,7,11,8)          -67.0775         estimate D2E/DX2                !
 ! D45   D(13,7,11,16)          54.3377         estimate D2E/DX2                !
 ! D46   D(13,7,11,17)         171.5            estimate D2E/DX2                !
 ! D47   D(18,7,11,8)           52.6604         estimate D2E/DX2                !
 ! D48   D(18,7,11,16)         174.0756         estimate D2E/DX2                !
 ! D49   D(18,7,11,17)         -68.7621         estimate D2E/DX2                !
 ! D50   D(11,7,18,20)         -28.5133         estimate D2E/DX2                !
 ! D51   D(12,7,18,20)        -150.7595         estimate D2E/DX2                !
 ! D52   D(13,7,18,20)          93.8606         estimate D2E/DX2                !
 ! D53   D(6,8,11,7)           -59.7058         estimate D2E/DX2                !
 ! D54   D(6,8,11,16)         -179.0673         estimate D2E/DX2                !
 ! D55   D(6,8,11,17)           61.8201         estimate D2E/DX2                !
 ! D56   D(14,8,11,7)          179.0668         estimate D2E/DX2                !
 ! D57   D(14,8,11,16)          59.7053         estimate D2E/DX2                !
 ! D58   D(14,8,11,17)         -59.4073         estimate D2E/DX2                !
 ! D59   D(15,8,11,7)           60.8434         estimate D2E/DX2                !
 ! D60   D(15,8,11,16)         -58.5181         estimate D2E/DX2                !
 ! D61   D(15,8,11,17)        -177.6307         estimate D2E/DX2                !
 ! D62   D(7,18,20,6)           10.7302         estimate D2E/DX2                !
 ! D63   D(7,18,20,19)        -172.3632         estimate D2E/DX2                !
 ! D64   D(29,25,26,27)         -2.122          estimate D2E/DX2                !
 ! D65   D(29,25,26,30)        178.0936         estimate D2E/DX2                !
 ! D66   D(34,25,26,27)       -166.573          estimate D2E/DX2                !
 ! D67   D(34,25,26,30)         13.6425         estimate D2E/DX2                !
 ! D68   D(26,25,29,28)          2.5185         estimate D2E/DX2                !
 ! D69   D(26,25,29,35)        178.8281         estimate D2E/DX2                !
 ! D70   D(34,25,29,28)        167.9058         estimate D2E/DX2                !
 ! D71   D(34,25,29,35)        -15.7846         estimate D2E/DX2                !
 ! D72   D(26,25,34,40)        -27.0969         estimate D2E/DX2                !
 ! D73   D(26,25,34,41)         92.5615         estimate D2E/DX2                !
 ! D74   D(26,25,34,42)       -144.9884         estimate D2E/DX2                !
 ! D75   D(29,25,34,40)        170.9302         estimate D2E/DX2                !
 ! D76   D(29,25,34,41)        -69.4115         estimate D2E/DX2                !
 ! D77   D(29,25,34,42)         53.0387         estimate D2E/DX2                !
 ! D78   D(25,26,27,28)          1.2119         estimate D2E/DX2                !
 ! D79   D(25,26,27,33)       -178.8451         estimate D2E/DX2                !
 ! D80   D(30,26,27,28)       -178.9817         estimate D2E/DX2                !
 ! D81   D(30,26,27,33)          0.9612         estimate D2E/DX2                !
 ! D82   D(25,26,30,31)        178.9842         estimate D2E/DX2                !
 ! D83   D(25,26,30,36)         -0.9629         estimate D2E/DX2                !
 ! D84   D(27,26,30,31)         -0.7727         estimate D2E/DX2                !
 ! D85   D(27,26,30,36)        179.2802         estimate D2E/DX2                !
 ! D86   D(26,27,28,1)         173.7084         estimate D2E/DX2                !
 ! D87   D(26,27,28,29)          0.2686         estimate D2E/DX2                !
 ! D88   D(33,27,28,1)          -6.2253         estimate D2E/DX2                !
 ! D89   D(33,27,28,29)       -179.665          estimate D2E/DX2                !
 ! D90   D(26,27,33,32)         -0.5047         estimate D2E/DX2                !
 ! D91   D(26,27,33,39)        179.6673         estimate D2E/DX2                !
 ! D92   D(28,27,33,32)        179.4235         estimate D2E/DX2                !
 ! D93   D(28,27,33,39)         -0.4045         estimate D2E/DX2                !
 ! D94   D(1,28,29,25)        -173.5254         estimate D2E/DX2                !
 ! D95   D(1,28,29,35)          10.5455         estimate D2E/DX2                !
 ! D96   D(27,28,29,25)         -1.6901         estimate D2E/DX2                !
 ! D97   D(27,28,29,35)       -177.6192         estimate D2E/DX2                !
 ! D98   D(25,29,35,43)        -61.6364         estimate D2E/DX2                !
 ! D99   D(25,29,35,44)         60.1009         estimate D2E/DX2                !
 ! D100  D(25,29,35,45)        179.2975         estimate D2E/DX2                !
 ! D101  D(28,29,35,43)        114.1655         estimate D2E/DX2                !
 ! D102  D(28,29,35,44)       -124.0972         estimate D2E/DX2                !
 ! D103  D(28,29,35,45)         -4.9006         estimate D2E/DX2                !
 ! D104  D(26,30,31,32)          0.1587         estimate D2E/DX2                !
 ! D105  D(26,30,31,37)       -179.8752         estimate D2E/DX2                !
 ! D106  D(36,30,31,32)       -179.8935         estimate D2E/DX2                !
 ! D107  D(36,30,31,37)          0.0725         estimate D2E/DX2                !
 ! D108  D(30,31,32,33)          0.2663         estimate D2E/DX2                !
 ! D109  D(30,31,32,38)       -179.9396         estimate D2E/DX2                !
 ! D110  D(37,31,32,33)       -179.6998         estimate D2E/DX2                !
 ! D111  D(37,31,32,38)          0.0943         estimate D2E/DX2                !
 ! D112  D(31,32,33,27)         -0.0848         estimate D2E/DX2                !
 ! D113  D(31,32,33,39)        179.7412         estimate D2E/DX2                !
 ! D114  D(38,32,33,27)       -179.8769         estimate D2E/DX2                !
 ! D115  D(38,32,33,39)         -0.0509         estimate D2E/DX2                !
 --------------------------------------------------------------------------------
 Trust Radius=3.00D-01 FncErr=1.00D-07 GrdErr=1.00D-06
 Number of steps in this run=    258 maximum allowed number of steps=    270.
 GradGradGradGradGradGradGradGradGradGradGradGradGradGradGradGradGradGrad

 Leave Link  103 at Wed Dec 15 21:49:06 2021, MaxMem=  6710886400 cpu:         0.2
 (Enter /usr/local/gqt/g09/l202.exe)
                          Input orientation:                          
 ---------------------------------------------------------------------
 Center     Atomic      Atomic             Coordinates (Angstroms)
 Number     Number       Type             X           Y           Z
 ---------------------------------------------------------------------
      1          1           0       -0.376111    0.320802    0.522453
      2          8           0       -1.346941    0.447681    0.690519
      3          6           0       -1.557205    0.663364    2.065384
      4          1           0       -1.150697   -0.167650    2.651618
      5          1           0       -1.038038    1.569481    2.396654
      6          6           0       -6.143861    0.770418   -0.548801
      7          6           0       -3.843749   -0.812902   -1.264716
      8          6           0       -5.026342    1.344017   -1.403744
      9          1           0       -6.482547    1.462464    0.217769
     10          1           0       -7.015978    0.555717   -1.170870
     11          6           0       -4.394637    0.224052   -2.207936
     12          1           0       -3.527735   -1.712300   -1.783781
     13          1           0       -3.004195   -0.419060   -0.693297
     14          1           0       -5.422732    2.123236   -2.050814
     15          1           0       -4.269835    1.808679   -0.770373
     16          1           0       -3.575365    0.589758   -2.824624
     17          1           0       -5.131257   -0.222687   -2.877440
     18          8           0       -4.819203   -1.273381   -0.299988
     19          8           0       -6.507409   -0.956184    1.045729
     20          6           0       -5.831081   -0.531482    0.138487
     21          6           0       -3.035708    0.798700    2.341075
     22          1           0       -3.214773    0.970789    3.401288
     23          1           0       -3.455444    1.636405    1.785576
     24          1           0       -3.565914   -0.105984    2.048401
     25          7           0        3.686527   -0.521666    0.279251
     26          6           0        3.679752    0.813378    0.063601
     27          6           0        2.330923    1.229939    0.050166
     28          6           0        1.481069    0.098488    0.296202
     29          7           0        2.353251   -0.891705    0.442681
     30          6           0        4.735994    1.706733   -0.127171
     31          6           0        4.404098    3.026352   -0.348186
     32          6           0        3.068615    3.465232   -0.378983
     33          6           0        2.034401    2.576995   -0.180776
     34          6           0        4.797719   -1.364469    0.636684
     35          6           0        2.053842   -2.288160    0.665582
     36          1           0        5.767412    1.389716   -0.105505
     37          1           0        5.195428    3.745450   -0.501946
     38          1           0        2.861002    4.509507   -0.556810
     39          1           0        1.005679    2.906961   -0.198782
     40          1           0        5.703007   -0.902414    0.258365
     41          1           0        4.886010   -1.479502    1.716564
     42          1           0        4.703496   -2.341397    0.173466
     43          1           0        2.371452   -2.890801   -0.182328
     44          1           0        2.538672   -2.650921    1.568316
     45          1           0        0.981042   -2.363112    0.778362
 ---------------------------------------------------------------------
                    Distance matrix (angstroms):
                    1          2          3          4          5
     1  H    0.000000
     2  O    0.993406   0.000000
     3  C    1.973061   1.407474   0.000000
     4  H    2.317739   2.064716   1.095218   0.000000
     5  H    2.347334   2.065128   1.095592   1.759353   0.000000
     6  C    5.883594   4.964928   5.280420   6.004527   5.948415
     7  C    4.062483   3.412633   4.300838   4.796514   5.191666
     8  C    5.136327   4.327511   4.953085   5.809623   5.513658
     9  H    6.219709   5.256208   5.320830   6.083545   5.865294
    10  H    6.856410   5.967782   6.346899   7.038195   7.034964
    11  C    4.859314   4.211829   5.148328   5.855924   5.854843
    12  H    4.402835   3.942530   4.933846   5.263936   5.868962
    13  H    2.988690   2.326516   3.297839   3.832378   4.167477
    14  H    5.944649   5.189842   5.832376   6.753614   6.269941
    15  H    4.364203   3.539750   4.087986   5.034374   4.531202
    16  H    4.637940   4.164407   5.290611   6.036713   5.887243
    17  H    5.870781   5.244118   6.163639   6.813103   6.912480
    18  O    4.791544   3.999970   4.470637   4.836585   5.445269
    19  O    6.284690   5.359799   5.307273   5.647568   6.173978
    20  C    5.534484   4.622879   4.838037   5.324866   5.699704
    21  C    3.257181   2.387359   1.510064   2.140919   2.141933
    22  H    4.094896   3.333273   2.150972   2.473552   2.471011
    23  H    3.578908   2.656690   2.151375   3.052295   2.494343
    24  H    3.561672   2.659742   2.151069   2.490170   3.052642
    25  N    4.156191   5.142429   5.664918   5.399277   5.583709
    26  C    4.111351   5.078819   5.608508   5.567180   5.317177
    27  C    2.894412   3.814271   4.415841   4.565357   4.119611
    28  C    1.884073   2.876641   3.560927   3.541893   3.594666
    29  N    2.987633   3.942943   4.510329   4.204915   4.623449
    30  C    5.336332   6.265456   6.745389   6.774077   6.303014
    31  C    5.561331   6.387715   6.851727   7.075042   6.266854
    32  C    4.750385   5.454043   5.934948   6.339161   5.306847
    33  C    3.375723   4.089818   4.648317   5.069555   4.134986
    34  C    5.442583   6.406531   6.821903   6.393434   6.764734
    35  C    3.568170   4.364719   4.869353   4.325503   5.238103
    36  H    6.267358   7.220464   7.674005   7.608373   7.253086
    37  H    6.619641   7.422926   7.854201   8.095098   7.210604
    38  H    5.402681   5.980054   6.417887   6.947196   5.706945
    39  H    3.019560   3.517632   4.090055   4.714655   3.563975
    40  H    6.206584   7.191056   7.643799   7.296629   7.491611
    41  H    5.688313   6.604277   6.799159   6.247969   6.697250
    42  H    5.745564   6.682371   7.197522   6.718481   7.294021
    43  H    4.284882   5.072847   5.754880   5.277531   6.178178
    44  H    4.291961   5.046766   5.292237   4.577294   5.593817
    45  H    3.018401   3.650723   4.154357   3.587959   4.707530
                    6          7          8          9         10
     6  C    0.000000
     7  C    2.882699   0.000000
     8  C    1.519471   2.463768   0.000000
     9  H    1.086860   3.786596   2.182628   0.000000
    10  H    1.092545   3.456148   2.152742   1.742142   0.000000
    11  C    2.472050   1.506126   1.516607   3.431775   2.838474
    12  H    3.812241   1.085454   3.425102   4.776635   4.205639
    13  H    3.360542   1.089258   2.775293   4.058215   4.156040
    14  H    2.146203   3.425207   1.087661   2.589652   2.402051
    15  H    2.153846   2.701594   1.090584   2.447935   3.044932
    16  H    3.436449   2.114899   2.166366   4.297613   3.817575
    17  H    2.726570   2.146371   2.153450   3.774392   2.659035
    18  O    2.448212   1.447153   2.848150   3.243398   2.988286
    19  O    2.378203   3.528990   3.672111   2.556559   2.730897
    20  C    1.505038   2.449013   2.558042   2.099170   2.073740
    21  C    4.244149   4.031367   4.275940   4.102403   5.313694
    22  H    4.921677   5.034755   5.148729   4.588560   5.960375
    23  H    3.664265   3.931179   3.567208   3.413448   4.752459
    24  H    3.762891   3.399069   4.019037   3.783912   4.764923
    25  N    9.949456   7.692445   9.067929  10.361014  10.853903
    26  C    9.842777   7.811036   8.844815  10.184174  10.769817
    27  C    8.508342   6.635412   7.500415   8.818130   9.450401
    28  C    7.700979   5.623236   6.840143   8.079961   8.634881
    29  N    8.714734   6.428392   7.928816   9.146804   9.616705
    30  C   10.928207   9.014132   9.852127  11.226501  11.854240
    31  C   10.788370   9.143679   9.637305  11.012951  11.713197
    32  C    9.600030   8.177269   8.430778   9.777110  10.525748
    33  C    8.383504   6.871606   7.271174   8.598803   9.326050
    34  C   11.210767   8.865355  10.392854  11.636642  12.104454
    35  C    8.833570   6.378402   8.222154   9.334755   9.681003
    36  H   11.935597   9.928228  10.871644  12.254440  12.854790
    37  H   11.723160  10.152197  10.538724  11.920785  12.638840
    38  H    9.750303   8.589695   8.540950   9.858314  10.656653
    39  H    7.470157   6.204075   6.346653   7.637644   8.415478
    40  H   11.991588   9.667903  11.087290  12.412978  12.881826
    41  H   11.482686   9.248842  10.768626  11.838312  12.415180
    42  H   11.307971   8.801140  10.523289  11.815197  12.146875
    43  H    9.276281   6.642135   8.611208   9.874426  10.048858
    44  H    9.569437   7.220781   9.056605  10.006313  10.443993
    45  H    7.895860   5.464057   7.388711   8.405620   8.733349
                   11         12         13         14         15
    11  C    0.000000
    12  H    2.163535   0.000000
    13  H    2.154310   1.770796   0.000000
    14  H    2.165310   4.286450   3.762372   0.000000
    15  H    2.143177   3.738315   2.563319   1.751470   0.000000
    16  H    1.088693   2.526874   2.426212   2.522519   2.487570
    17  H    1.091064   2.446696   3.055067   2.504321   3.050939
    18  O    2.462281   2.015485   2.044214   3.868675   3.165780
    19  O    4.055009   4.178073   3.947812   4.499770   3.993674
    20  C    2.853052   3.224104   2.948862   3.465157   2.956327
    21  C    4.782302   4.854034   3.269762   5.171167   3.496317
    22  H    5.780406   5.846525   4.329163   5.994050   4.383831
    23  H    4.338774   4.894830   3.251672   4.338792   2.688082
    24  H    4.348806   4.155397   2.816106   5.022027   3.479501
    25  N    8.488074   7.597321   6.761815   9.767462   8.356788
    26  C    8.408505   7.857464   6.838637   9.436191   8.054941
    27  C    7.165473   6.807644   5.633420   8.082776   6.676693
    28  C    6.388301   5.717814   4.622181   7.567731   6.093869
    29  N    7.335167   6.341648   5.496914   8.704786   7.254574
    30  C    9.481369   9.095239   8.046740  10.347637   9.029345
    31  C    9.419622   9.350386   8.177577  10.014047   8.769155
    32  C    8.339691   8.502477   7.215645   8.757793   7.533273
    33  C    7.139905   7.204515   5.884426   7.701413   6.378191
    34  C    9.752675   8.677144   7.970729  11.128538   9.709234
    35  C    7.493410   6.122499   5.560919   9.096064   7.670394
    36  H   10.442520   9.941774   8.975425  11.381634  10.067964
    37  H   10.357605  10.369363   9.198563  10.852460   9.665109
    38  H    8.586946   9.001794   7.662241   8.749091   7.628166
    39  H    6.355951   6.663455   5.233168   6.735630   5.418854
    40  H   10.455333   9.488566   8.772381  11.758782  10.385852
    41  H   10.219305   9.115794   8.317890  11.551754  10.041239
    42  H    9.748263   8.484087   7.990942  11.288085   9.931497
    43  H    7.719155   6.225265   5.938701   9.454159   8.157059
    44  H    8.402161   6.994201   6.389012   9.963665   8.468368
    45  H    6.671530   5.226586   4.671962   8.315039   6.882886
                   16         17         18         19         20
    16  H    0.000000
    17  H    1.756034   0.000000
    18  O    3.375234   2.800820   0.000000
    19  O    5.095729   4.221737   2.182111   0.000000
    20  C    3.889147   3.111418   1.329124   1.208668   0.000000
    21  C    5.198012   5.715545   3.801261   4.100030   3.799327
    22  H    6.247975   6.672310   4.616269   4.483674   4.443845
    23  H    4.729037   5.292286   3.830962   4.072270   3.613348
    24  H    4.922450   5.169896   2.906627   3.221891   2.993293
    25  N    7.975235   9.370560   8.558507  10.231941   9.518654
    26  C    7.812079   9.346499   8.758938  10.386250   9.605738
    27  C    6.599886   8.146480   7.583767   9.158952   8.350372
    28  C    5.962250   7.341527   6.475407   8.092583   7.340931
    29  N    6.929538   8.215147   7.220895   8.881391   8.197901
    30  C    8.809233  10.423497  10.010632  11.613826  10.804780
    31  C    8.702963  10.386355  10.176409  11.698913  10.846839
    32  C    7.641464   9.331716   9.202084  10.643259   9.769651
    33  C    6.512182   8.152108   7.862029   9.324708   8.463472
    34  C    9.268667  10.594211   9.662859  11.319891  10.673025
    35  C    7.221629   8.273139   7.014332   8.672583   8.095416
    36  H    9.763249  11.360654  10.918165  12.549893  11.759063
    37  H    9.606249  11.315012  11.203672  12.706575  11.844247
    38  H    7.869831   9.573672   9.617344  10.963988  10.072106
    39  H    5.766319   7.391338   7.170408   8.539273   7.660152
    40  H    9.890379  11.299407  10.543542  12.235894  11.540674
    41  H    9.823395  11.091893   9.914642  11.425142  10.874056
    42  H    9.280073  10.512817   9.594093  11.329786  10.688982
    43  H    7.379746   8.406730   7.371256   9.169789   8.541127
    44  H    8.196424   9.191783   7.715342   9.218287   8.751525
    45  H    6.516271   7.436834   5.999433   7.624161   7.083031
                   21         22         23         24         25
    21  C    0.000000
    22  H    1.088913   0.000000
    23  H    1.089269   1.763942   0.000000
    24  H    1.088683   1.764382   1.765559   0.000000
    25  N    7.154224   7.720264   7.611441   7.476669   0.000000
    26  C    7.091157   7.661554   7.386041   7.568642   1.352366
    27  C    5.851065   6.484745   6.054660   6.367914   2.226715
    28  C    5.007303   5.696789   5.380761   5.346405   2.291053
    29  N    5.958376   6.574582   6.475773   6.183220   1.393292
    30  C    8.204640   8.729624   8.412087   8.771587   2.496462
    31  C    8.218593   8.736766   8.261797   8.892482   3.673829
    32  C    7.195267   7.745557   7.112894   7.915981   4.087841
    33  C    5.935324   6.554762   5.906746   6.597813   3.541588
    34  C    8.303423   8.791843   8.856631   8.574794   1.439730
    35  C    6.183810   6.772233   6.856299   6.185122   2.436270
    36  H    9.155871   9.651567   9.417968   9.694710   2.851579
    37  H    9.193350   9.678091   9.193389   9.904490   4.592965
    38  H    7.545795   8.068712   7.323864   8.330374   5.166545
    39  H    5.218088   5.875498   5.045157   5.918372   4.378464
    40  H    9.143118   9.639173   9.625757   9.473723   2.052218
    41  H    8.266428   8.629305   8.904689   8.569229   2.102873
    42  H    8.628674   9.169973   9.219008   8.769013   2.087304
    43  H    7.015509   7.678547   7.636816   6.927025   2.748687
    44  H    6.600815   7.041214   7.372774   6.631226   2.740983
    45  H    5.345410   5.966532   6.057477   5.232823   3.310541
                   26         27         28         29         30
    26  C    0.000000
    27  C    1.411752   0.000000
    28  C    2.323656   1.436304   0.000000
    29  N    2.193312   2.157762   1.327644   0.000000
    30  C    1.396469   2.458282   3.655166   3.571286   0.000000
    31  C    2.364635   2.771973   4.187090   4.492506   1.378549
    32  C    2.757118   2.392675   3.783007   4.491077   2.436367
    33  C    2.424304   1.398507   2.583928   3.538679   2.838809
    34  C    2.514218   3.627677   3.640926   2.497313   3.165370
    35  C    3.553239   3.582252   2.482055   1.445482   4.876636
    36  H    2.172345   3.443721   4.494594   4.142691   1.079255
    37  H    3.348755   3.852013   5.266292   5.520280   2.123181
    38  H    3.836226   3.377125   4.699887   5.516329   3.399371
    39  H    3.406260   2.151895   2.891112   4.081334   3.919302
    40  H    2.659969   3.995150   4.339124   3.354841   2.809164
    41  H    3.073213   4.080002   4.012618   2.895367   3.684285
    42  H    3.318543   4.289376   4.043777   2.774480   4.059409
    43  H    3.936124   4.127493   3.155570   2.094601   5.170245
    44  H    3.945580   4.172411   3.208745   2.096730   5.166435
    45  H    4.228949   3.906720   2.557729   2.039774   5.610998
                   31         32         33         34         35
    31  C    0.000000
    32  C    1.406086   0.000000
    33  C    2.417728   1.377624   0.000000
    34  C    4.517103   5.229474   4.882552   0.000000
    35  C    5.898768   5.934846   4.938263   2.895324   0.000000
    36  H    2.143851   3.415562   3.917993   3.012753   5.283176
    37  H    1.080253   2.148715   3.385340   5.250325   6.901966
    38  H    2.150446   1.079461   2.135245   6.299119   6.953706
    39  H    3.403796   2.144725   1.080496   5.772581   5.369828
    40  H    4.182137   5.140289   5.075215   1.084512   3.924605
    41  H    4.979774   5.669624   5.309119   1.089573   3.127246
    42  H    5.401341   6.057638   5.607151   1.085282   2.695492
    43  H    6.258743   6.397177   5.478176   2.981148   1.087660
    44  H    6.275685   6.440508   5.535768   2.761556   1.087007
    45  H    6.483266   6.298174   5.141417   3.947706   1.081313
                   36         37         38         39         40
    36  H    0.000000
    37  H    2.456382   0.000000
    38  H    4.287656   2.456896   0.000000
    39  H    4.998483   4.283570   2.477612   0.000000
    40  H    2.321725   4.736913   6.166879   6.065082   0.000000
    41  H    3.511298   5.684861   6.718416   6.161702   1.768293
    42  H    3.889852   6.143930   7.131828   6.430994   1.754111
    43  H    5.464547   7.219198   7.425932   5.956480   3.904761
    44  H    5.436284   7.228962   7.476081   6.030154   3.845292
    45  H    6.146078   7.530920   7.249126   5.359952   4.970009
                   41         42         43         44         45
    41  H    0.000000
    42  H    1.776887   0.000000
    43  H    3.452616   2.422161   0.000000
    44  H    2.627584   2.593815   1.774897   0.000000
    45  H    4.112148   3.771344   1.770486   1.770049   0.000000
 Stoichiometry    C16H24N2O3
 Framework group  C1[X(C16H24N2O3)]
 Deg. of freedom   129
 Full point group                 C1      NOp   1
 Largest Abelian subgroup         C1      NOp   1
 Largest concise Abelian subgroup C1      NOp   1
                         Standard orientation:                         
 ---------------------------------------------------------------------
 Center     Atomic      Atomic             Coordinates (Angstroms)
 Number     Number       Type             X           Y           Z
 ---------------------------------------------------------------------
      1          1           0        0.155360   -0.148898    0.368046
      2          8           0       -0.792446   -0.004207    0.628014
      3          6           0       -0.925606   -0.177685    2.018395
      4          1           0       -0.571244   -1.169782    2.317855
      5          1           0       -0.314189    0.554062    2.557874
      6          6           0       -5.588300    1.014874   -0.154142
      7          6           0       -3.470662   -0.461612   -1.436932
      8          6           0       -4.460192    1.725617   -0.882844
      9          1           0       -5.831742    1.480577    0.797237
     10          1           0       -6.501075    1.053069   -0.753340
     11          6           0       -3.965011    0.840395   -2.010353
     12          1           0       -3.258119   -1.194764   -2.208634
     13          1           0       -2.576350   -0.311771   -0.833413
     14          1           0       -4.811633    2.684980   -1.255830
     15          1           0       -3.639626    1.931434   -0.194598
     16          1           0       -3.142464    1.306215   -2.550428
     17          1           0       -4.765675    0.660605   -2.729403
     18          8           0       -4.442739   -1.106378   -0.580431
     19          8           0       -6.038762   -1.065219    0.907058
     20          6           0       -5.365182   -0.449010    0.114938
     21          6           0       -2.373411   -0.018289    2.416823
     22          1           0       -2.492419   -0.145305    3.491734
     23          1           0       -2.739068    0.972346    2.149529
     24          1           0       -2.994091   -0.758940    1.915402
     25          7           0        4.112769   -1.184065   -0.367662
     26          6           0        4.216609    0.153332   -0.195970
     27          6           0        2.911077    0.654768   -0.003125
     28          6           0        1.974256   -0.433571   -0.032343
     29          7           0        2.759616   -1.485780   -0.229069
     30          6           0        5.339786    0.983151   -0.194659
     31          6           0        5.118485    2.331407   -0.011282
     32          6           0        3.827513    2.858158    0.170391
     33          6           0        2.727023    2.029463    0.176208
     34          6           0        5.157880   -2.173808   -0.336399
     35          6           0        2.345887   -2.861260   -0.391245
     36          1           0        6.338702    0.597890   -0.330792
     37          1           0        5.963971    3.003774   -0.006582
     38          1           0        3.707031    3.921866    0.309119
     39          1           0        1.732099    2.425837    0.319329
     40          1           0        6.084490   -1.690824   -0.626719
     41          1           0        5.280040   -2.600446    0.658702
     42          1           0        4.957550   -2.966701   -1.049860
     43          1           0        2.572998   -3.216656   -1.393800
     44          1           0        2.833168   -3.502909    0.338432
     45          1           0        1.276260   -2.885888   -0.234626
 ---------------------------------------------------------------------
 Rotational constants (GHZ):      0.5420714      0.1016261      0.0950474
 Leave Link  202 at Wed Dec 15 21:49:06 2021, MaxMem=  6710886400 cpu:         0.1
 (Enter /usr/local/gqt/g09/l301.exe)
 Standard basis: 6-311+G(d,p) (5D, 7F)
 Ernie: Thresh=  0.10000D-02 Tol=  0.10000D-05 Strict=F.
 There are   627 symmetry adapted cartesian basis functions of A   symmetry.
 There are   606 symmetry adapted basis functions of A   symmetry.
   606 basis functions,   948 primitive gaussians,   627 cartesian basis functions
    79 alpha electrons       79 beta electrons
       nuclear repulsion energy      1609.5414810302 Hartrees.
 IExCor= 5547 DFT=T Ex+Corr=N12SX ExCW=0 ScaHFX=  0.250000
 ScaDFX=  1.000000  1.000000  1.000000  1.000000 ScalE2=  1.000000  1.000000
 IRadAn=      0 IRanWt=     -1 IRanGd=            0 ICorTp=0 IEmpDi=  4
  HFx wShort=  0.110000 wLong=  0.000000 cFull=  0.000000 cShort=  1.000000 cLong=  0.000000
  DFx wShort=  0.110000 wLong=  0.000000 cFull=  0.000000 cShort=  1.000000 cLong=  0.000000
 NAtoms=   45 NActive=   45 NUniq=   45 SFac= 1.00D+00 NAtFMM=   60 NAOKFM=F Big=F
 Integral buffers will be    131072 words long.
 Raffenetti 2 integral format.
 Two-electron integral symmetry is turned on.
 ------------------------------------------------------------------------------
 Polarizable Continuum Model (PCM)
 =================================
 Model                : PCM (using non-symmetric T matrix).
 Atomic radii         : UFF (Universal Force Field).
 Polarization charges : Total charges.
 Charge compensation  : None.
 Solution method      : On-the-fly selection.
 Cavity type          : Scaled VdW (van der Waals Surface) (Alpha=1.100).
 Cavity algorithm     : GePol (No added spheres)
                        Default sphere list used, NSphG=   45.
                        Lebedev-Laikov grids with approx.  5.0 points / Ang**2.
                        Smoothing algorithm: Karplus/York (Gamma=1.0000).
                        Polarization charges: spherical gaussians, with
                                              point-specific exponents (IZeta= 3).
                        Self-potential: point-specific (ISelfS= 7).
                        Self-field    : sphere-specific E.n sum rule (ISelfD= 2).
 1st derivatives      : Analytical E(r).r(x)/FMM algorithm (CHGder, D1EAlg=3).
                        Cavity 1st derivative terms included.
 Solvent              : Ethanol, Eps=  24.852000 Eps(inf)=   1.852593
 ------------------------------------------------------------------------------
 GePol: Number of generator spheres                  =      45
 GePol: Total number of spheres                      =      45
 GePol: Number of exposed spheres                    =      45 (100.00%)
 GePol: Number of points                             =    3435
 GePol: Average weight of points                     =       0.13
 GePol: Minimum weight of points                     =   0.11D-09
 GePol: Maximum weight of points                     =    0.20577
 GePol: Number of points with low weight             =     237
 GePol: Fraction of low-weight points (<1% of avg)   =       6.90%
 GePol: Cavity surface area                          =    431.711 Ang**2
 GePol: Cavity volume                                =    448.997 Ang**3
 Leave Link  301 at Wed Dec 15 21:49:06 2021, MaxMem=  6710886400 cpu:         0.8
 (Enter /usr/local/gqt/g09/l302.exe)
 NPDir=0 NMtPBC=     1 NCelOv=     1 NCel=       1 NClECP=     1 NCelD=      1
         NCelK=      1 NCelE2=     1 NClLst=     1 CellRange=     0.0.
 One-electron integrals computed using PRISM.
 NBasis=   606 RedAO= T EigKep=  2.35D-06  NBF=   606
 NBsUse=   604 1.00D-06 EigRej=  9.67D-07 NBFU=   604
 Precomputing XC quadrature grid using
 IXCGrd= 4 IRadAn=           0 IRanWt=          -1 IRanGd=           0 AccXCQ= 0.00D+00.
 Generated NRdTot=       0 NPtTot=           0 NUsed=           0 NTot=          32
 NSgBfM=   615   615   615   615   615 MxSgAt=    45 MxSgA2=    45.
 Leave Link  302 at Wed Dec 15 21:49:07 2021, MaxMem=  6710886400 cpu:        15.5
 (Enter /usr/local/gqt/g09/l303.exe)
 DipDrv:  MaxL=1.
 Leave Link  303 at Wed Dec 15 21:49:07 2021, MaxMem=  6710886400 cpu:         1.4
 (Enter /usr/local/gqt/g09/l401.exe)
 ExpMin= 4.38D-02 ExpMax= 8.59D+03 ExpMxC= 1.30D+03 IAcc=2 IRadAn=         4 AccDes= 0.00D+00
 Harris functional with IExCor= 5547 and IRadAn=       4 diagonalized for initial guess.
 HarFok:  IExCor= 5547 AccDes= 0.00D+00 IRadAn=         4 IDoV= 1 UseB2=F ITyADJ=14
 ICtDFT=  3500011 ScaDFX=  1.000000  1.000000  1.000000  1.000000
 FoFCou: FMM=F IPFlag=           0 FMFlag=      100000 FMFlg1=           0
         NFxFlg=           0 DoJE=T BraDBF=F KetDBF=T FulRan=T
         wScrn=  0.000000 ICntrl=     500 IOpCl=  0 I1Cent=   200000004 NGrid=           0
         NMat0=    1 NMatS0=      1 NMatT0=    0 NMatD0=    1 NMtDS0=    0 NMtDT0=    0
 Petite list used in FoFCou.
 Harris En= -929.684501202891    
 JPrj=0 DoOrth=F DoCkMO=F.
 Leave Link  401 at Wed Dec 15 21:49:09 2021, MaxMem=  6710886400 cpu:        39.5
 (Enter /usr/local/gqt/g09/l502.exe)
 Closed shell SCF:
 Using DIIS extrapolation, IDIIS=  1040.
 Integral symmetry usage will be decided dynamically.
 IVT=     1212649 IEndB=     1212649 NGot=  6710886400 MDV=  6710084148
 LenX=  6710084148 LenY=  6709690392
 Requested convergence on RMS density matrix=1.00D-08 within 128 cycles.
 Requested convergence on MAX density matrix=1.00D-06.
 Requested convergence on             energy=1.00D-06.
 No special actions if energy rises.
 Fock matrices will be formed incrementally for  20 cycles.

 Cycle   1  Pass 1  IDiag  1:
 FoFJK:  IHMeth= 1 ICntrl=       0 DoSepK=T KAlg= 0 I1Cent=   0 FoldK=F
 IRaf=         1 NMat=   1 IRICut=       1 DoRegI=T DoRafI=F ISym2E= 0.
 FoFCou: FMM=F IPFlag=           0 FMFlag=      100000 FMFlg1=           0
         NFxFlg=           0 DoJE=T BraDBF=F KetDBF=F FulRan=T
         wScrn=  0.000000 ICntrl=     500 IOpCl=  0 I1Cent=           0 NGrid=           0
         NMat0=    1 NMatS0=      1 NMatT0=    0 NMatD0=    1 NMtDS0=    0 NMtDT0=    0
 Symmetry not used in FoFCou.
 Inv3:  Mode=1 IEnd=    35397675.
 Iteration    1 A*A^-1 deviation from unit magnitude is 7.11D-15 for    428.
 Iteration    1 A*A^-1 deviation from orthogonality  is 5.16D-15 for   3434    422.
 Iteration    1 A^-1*A deviation from unit magnitude is 9.44D-15 for    215.
 Iteration    1 A^-1*A deviation from orthogonality  is 1.20D-11 for   2793   2463.
 E= -958.604210424424    
 DIIS: error= 5.48D-02 at cycle   1 NSaved=   1.
 NSaved= 1 IEnMin= 1 EnMin= -958.604210424424     IErMin= 1 ErrMin= 5.48D-02
 ErrMax= 5.48D-02  0.00D+00 EMaxC= 1.00D-01 BMatC= 2.49D+00 BMatP= 2.49D+00
 IDIUse=3 WtCom= 4.52D-01 WtEn= 5.48D-01
 Coeff-Com:  0.100D+01
 Coeff-En:   0.100D+01
 Coeff:      0.100D+01
 Gap=     0.240 Goal=   None    Shift=    0.000
 GapD=    0.240 DampG=1.000 DampE=0.500 DampFc=0.5000 IDamp=-1.
 Damping current iteration by 5.00D-01
 RMSDP=1.08D-02 MaxDP=2.16D+00              OVMax= 3.56D-01

 Cycle   2  Pass 1  IDiag  1:
 RMSU=  3.22D-03    CP:  8.81D-01
 E= -958.675535310833     Delta-E=       -0.071324886409 Rises=F Damp=T
 DIIS: error= 2.82D-02 at cycle   2 NSaved=   2.
 NSaved= 2 IEnMin= 2 EnMin= -958.675535310833     IErMin= 2 ErrMin= 2.82D-02
 ErrMax= 2.82D-02  0.00D+00 EMaxC= 1.00D-01 BMatC= 5.63D-01 BMatP= 2.49D+00
 IDIUse=3 WtCom= 7.18D-01 WtEn= 2.82D-01
 Coeff-Com: -0.193D+00 0.119D+01
 Coeff-En:   0.423D+00 0.577D+00
 Coeff:     -0.194D-01 0.102D+01
 Gap=     0.494 Goal=   None    Shift=    0.000
 RMSDP=6.24D-03 MaxDP=1.01D+00 DE=-7.13D-02 OVMax= 5.68D-01

 Cycle   3  Pass 1  IDiag  1:
 RMSU=  3.58D-03    CP:  7.69D-01  5.76D-02
 E= -958.552571775968     Delta-E=        0.122963534865 Rises=F Damp=F
 DIIS: error= 5.19D-02 at cycle   3 NSaved=   3.
 NSaved= 3 IEnMin= 2 EnMin= -958.675535310833     IErMin= 2 ErrMin= 2.82D-02
 ErrMax= 5.19D-02  0.00D+00 EMaxC= 1.00D-01 BMatC= 5.49D-01 BMatP= 5.63D-01
 IDIUse=3 WtCom= 4.81D-01 WtEn= 5.19D-01
 Coeff-Com: -0.316D+00 0.751D+00 0.564D+00
 Coeff-En:   0.000D+00 0.586D+00 0.414D+00
 Coeff:     -0.152D+00 0.665D+00 0.487D+00
 Gap=     0.191 Goal=   None    Shift=    0.000
 RMSDP=3.72D-03 MaxDP=4.40D-01 DE= 1.23D-01 OVMax= 2.91D-01

 Cycle   4  Pass 1  IDiag  1:
 RMSU=  1.48D-03    CP:  7.57D-01  9.10D-01  4.45D-01
 E= -959.033964398944     Delta-E=       -0.481392622976 Rises=F Damp=F
 DIIS: error= 1.01D-02 at cycle   4 NSaved=   4.
 NSaved= 4 IEnMin= 4 EnMin= -959.033964398944     IErMin= 4 ErrMin= 1.01D-02
 ErrMax= 1.01D-02  0.00D+00 EMaxC= 1.00D-01 BMatC= 4.22D-02 BMatP= 5.49D-01
 IDIUse=3 WtCom= 8.99D-01 WtEn= 1.01D-01
 Coeff-Com: -0.777D-01 0.192D+00 0.284D+00 0.602D+00
 Coeff-En:   0.000D+00 0.000D+00 0.786D-01 0.921D+00
 Coeff:     -0.699D-01 0.172D+00 0.263D+00 0.634D+00
 Gap=     0.174 Goal=   None    Shift=    0.000
 RMSDP=1.32D-03 MaxDP=1.40D-01 DE=-4.81D-01 OVMax= 1.02D-01

 Cycle   5  Pass 1  IDiag  1:
 RMSU=  7.22D-04    CP:  7.54D-01  6.86D-01  6.58D-01  7.80D-01
 E= -959.070174348808     Delta-E=       -0.036209949864 Rises=F Damp=F
 DIIS: error= 2.92D-03 at cycle   5 NSaved=   5.
 NSaved= 5 IEnMin= 5 EnMin= -959.070174348808     IErMin= 5 ErrMin= 2.92D-03
 ErrMax= 2.92D-03  0.00D+00 EMaxC= 1.00D-01 BMatC= 3.99D-03 BMatP= 4.22D-02
 IDIUse=3 WtCom= 9.71D-01 WtEn= 2.92D-02
 Coeff-Com:  0.204D-01-0.380D-01 0.290D-01 0.335D+00 0.654D+00
 Coeff-En:   0.000D+00 0.000D+00 0.000D+00 0.651D-01 0.935D+00
 Coeff:      0.198D-01-0.369D-01 0.282D-01 0.327D+00 0.662D+00
 Gap=     0.166 Goal=   None    Shift=    0.000
 RMSDP=3.61D-04 MaxDP=7.84D-02 DE=-3.62D-02 OVMax= 3.00D-02

 Cycle   6  Pass 1  IDiag  1:
 RMSU=  2.06D-04    CP:  7.51D-01  6.95D-01  6.50D-01  8.55D-01  6.51D-01
 E= -959.073306588607     Delta-E=       -0.003132239799 Rises=F Damp=F
 DIIS: error= 1.03D-03 at cycle   6 NSaved=   6.
 NSaved= 6 IEnMin= 6 EnMin= -959.073306588607     IErMin= 6 ErrMin= 1.03D-03
 ErrMax= 1.03D-03  0.00D+00 EMaxC= 1.00D-01 BMatC= 5.40D-04 BMatP= 3.99D-03
 IDIUse=3 WtCom= 9.90D-01 WtEn= 1.03D-02
 Coeff-Com:  0.161D-01-0.326D-01-0.237D-02 0.145D+00 0.400D+00 0.474D+00
 Coeff-En:   0.000D+00 0.000D+00 0.000D+00 0.000D+00 0.722D-01 0.928D+00
 Coeff:      0.159D-01-0.323D-01-0.235D-02 0.144D+00 0.397D+00 0.478D+00
 Gap=     0.165 Goal=   None    Shift=    0.000
 RMSDP=9.73D-05 MaxDP=9.60D-03 DE=-3.13D-03 OVMax= 6.98D-03

 Cycle   7  Pass 1  IDiag  1:
 RMSU=  5.08D-05    CP:  7.50D-01  6.94D-01  6.51D-01  8.51D-01  7.39D-01
                    CP:  7.62D-01
 E= -959.073779808294     Delta-E=       -0.000473219687 Rises=F Damp=F
 DIIS: error= 1.51D-04 at cycle   7 NSaved=   7.
 NSaved= 7 IEnMin= 7 EnMin= -959.073779808294     IErMin= 7 ErrMin= 1.51D-04
 ErrMax= 1.51D-04  0.00D+00 EMaxC= 1.00D-01 BMatC= 1.15D-05 BMatP= 5.40D-04
 IDIUse=3 WtCom= 9.98D-01 WtEn= 1.51D-03
 Coeff-Com:  0.441D-02-0.886D-02-0.192D-02 0.334D-01 0.114D+00 0.187D+00
 Coeff-Com:  0.672D+00
 Coeff-En:   0.000D+00 0.000D+00 0.000D+00 0.000D+00 0.000D+00 0.000D+00
 Coeff-En:   0.100D+01
 Coeff:      0.440D-02-0.885D-02-0.191D-02 0.333D-01 0.114D+00 0.187D+00
 Coeff:      0.672D+00
 Gap=     0.165 Goal=   None    Shift=    0.000
 RMSDP=2.47D-05 MaxDP=2.59D-03 DE=-4.73D-04 OVMax= 1.37D-03

 Cycle   8  Pass 1  IDiag  1:
 RMSU=  1.76D-05    CP:  7.51D-01  6.96D-01  6.50D-01  8.53D-01  7.54D-01
                    CP:  7.29D-01  8.54D-01
 E= -959.073787441667     Delta-E=       -0.000007633373 Rises=F Damp=F
 DIIS: error= 9.49D-05 at cycle   8 NSaved=   8.
 NSaved= 8 IEnMin= 8 EnMin= -959.073787441667     IErMin= 8 ErrMin= 9.49D-05
 ErrMax= 9.49D-05  0.00D+00 EMaxC= 1.00D-01 BMatC= 3.23D-06 BMatP= 1.15D-05
 IDIUse=1 WtCom= 1.00D+00 WtEn= 0.00D+00
 Coeff-Com:  0.877D-03-0.170D-02-0.536D-03 0.480D-02 0.270D-01 0.599D-01
 Coeff-Com:  0.387D+00 0.523D+00
 Coeff:      0.877D-03-0.170D-02-0.536D-03 0.480D-02 0.270D-01 0.599D-01
 Coeff:      0.387D+00 0.523D+00
 Gap=     0.165 Goal=   None    Shift=    0.000
 RMSDP=8.12D-06 MaxDP=1.14D-03 DE=-7.63D-06 OVMax= 6.60D-04

 Cycle   9  Pass 1  IDiag  1:
 RMSU=  5.82D-06    CP:  7.51D-01  6.96D-01  6.51D-01  8.52D-01  7.57D-01
                    CP:  7.30D-01  8.86D-01  8.69D-01
 E= -959.073790279063     Delta-E=       -0.000002837396 Rises=F Damp=F
 DIIS: error= 2.52D-05 at cycle   9 NSaved=   9.
 NSaved= 9 IEnMin= 9 EnMin= -959.073790279063     IErMin= 9 ErrMin= 2.52D-05
 ErrMax= 2.52D-05  0.00D+00 EMaxC= 1.00D-01 BMatC= 2.54D-07 BMatP= 3.23D-06
 IDIUse=1 WtCom= 1.00D+00 WtEn= 0.00D+00
 Coeff-Com:  0.398D-04-0.678D-04 0.111D-04-0.931D-03 0.261D-02 0.109D-01
 Coeff-Com:  0.117D+00 0.259D+00 0.612D+00
 Coeff:      0.398D-04-0.678D-04 0.111D-04-0.931D-03 0.261D-02 0.109D-01
 Coeff:      0.117D+00 0.259D+00 0.612D+00
 Gap=     0.165 Goal=   None    Shift=    0.000
 RMSDP=2.91D-06 MaxDP=4.72D-04 DE=-2.84D-06 OVMax= 1.60D-04

 Cycle  10  Pass 1  IDiag  1:
 RMSU=  2.14D-06    CP:  7.51D-01  6.96D-01  6.51D-01  8.52D-01  7.57D-01
                    CP:  7.33D-01  8.92D-01  8.47D-01  7.91D-01
 E= -959.073790458259     Delta-E=       -0.000000179196 Rises=F Damp=F
 DIIS: error= 9.21D-06 at cycle  10 NSaved=  10.
 NSaved=10 IEnMin=10 EnMin= -959.073790458259     IErMin=10 ErrMin= 9.21D-06
 ErrMax= 9.21D-06  0.00D+00 EMaxC= 1.00D-01 BMatC= 4.24D-08 BMatP= 2.54D-07
 IDIUse=1 WtCom= 1.00D+00 WtEn= 0.00D+00
 Coeff-Com: -0.461D-04 0.936D-04 0.599D-04-0.119D-02-0.137D-02-0.335D-04
 Coeff-Com:  0.253D-01 0.969D-01 0.355D+00 0.526D+00
 Coeff:     -0.461D-04 0.936D-04 0.599D-04-0.119D-02-0.137D-02-0.335D-04
 Coeff:      0.253D-01 0.969D-01 0.355D+00 0.526D+00
 Gap=     0.165 Goal=   None    Shift=    0.000
 RMSDP=1.15D-06 MaxDP=2.24D-04 DE=-1.79D-07 OVMax= 4.63D-05

 Cycle  11  Pass 1  IDiag  1:
 RMSU=  5.55D-07    CP:  7.51D-01  6.96D-01  6.51D-01  8.52D-01  7.58D-01
                    CP:  7.33D-01  8.96D-01  8.59D-01  8.28D-01  9.18D-01
 E= -959.073790492216     Delta-E=       -0.000000033957 Rises=F Damp=F
 DIIS: error= 3.77D-06 at cycle  11 NSaved=  11.
 NSaved=11 IEnMin=11 EnMin= -959.073790492216     IErMin=11 ErrMin= 3.77D-06
 ErrMax= 3.77D-06  0.00D+00 EMaxC= 1.00D-01 BMatC= 3.37D-09 BMatP= 4.24D-08
 IDIUse=1 WtCom= 1.00D+00 WtEn= 0.00D+00
 Coeff-Com: -0.227D-04 0.434D-04 0.396D-04-0.548D-03-0.881D-03-0.851D-03
 Coeff-Com:  0.274D-02 0.278D-01 0.127D+00 0.264D+00 0.580D+00
 Coeff:     -0.227D-04 0.434D-04 0.396D-04-0.548D-03-0.881D-03-0.851D-03
 Coeff:      0.274D-02 0.278D-01 0.127D+00 0.264D+00 0.580D+00
 Gap=     0.165 Goal=   None    Shift=    0.000
 RMSDP=3.38D-07 MaxDP=6.84D-05 DE=-3.40D-08 OVMax= 1.92D-05

 Cycle  12  Pass 1  IDiag  1:
 RMSU=  2.26D-07    CP:  7.51D-01  6.96D-01  6.51D-01  8.52D-01  7.57D-01
                    CP:  7.33D-01  8.95D-01  8.64D-01  8.29D-01  8.84D-01
                    CP:  7.28D-01
 E= -959.073790494127     Delta-E=       -0.000000001911 Rises=F Damp=F
 DIIS: error= 2.08D-06 at cycle  12 NSaved=  12.
 NSaved=12 IEnMin=12 EnMin= -959.073790494127     IErMin=12 ErrMin= 2.08D-06
 ErrMax= 2.08D-06  0.00D+00 EMaxC= 1.00D-01 BMatC= 9.81D-10 BMatP= 3.37D-09
 IDIUse=1 WtCom= 1.00D+00 WtEn= 0.00D+00
 Coeff-Com: -0.916D-05 0.158D-04 0.180D-04-0.187D-03-0.407D-03-0.659D-03
 Coeff-Com: -0.309D-02 0.109D-02 0.201D-01 0.725D-01 0.400D+00 0.511D+00
 Coeff:     -0.916D-05 0.158D-04 0.180D-04-0.187D-03-0.407D-03-0.659D-03
 Coeff:     -0.309D-02 0.109D-02 0.201D-01 0.725D-01 0.400D+00 0.511D+00
 Gap=     0.165 Goal=   None    Shift=    0.000
 RMSDP=1.22D-07 MaxDP=1.06D-05 DE=-1.91D-09 OVMax= 7.80D-06

 Cycle  13  Pass 1  IDiag  1:
 RMSU=  7.55D-08    CP:  7.51D-01  6.96D-01  6.51D-01  8.52D-01  7.57D-01
                    CP:  7.33D-01  8.95D-01  8.65D-01  8.34D-01  8.91D-01
                    CP:  7.38D-01  8.34D-01
 E= -959.073790494879     Delta-E=       -0.000000000751 Rises=F Damp=F
 DIIS: error= 3.69D-07 at cycle  13 NSaved=  13.
 NSaved=13 IEnMin=13 EnMin= -959.073790494879     IErMin=13 ErrMin= 3.69D-07
 ErrMax= 3.69D-07  0.00D+00 EMaxC= 1.00D-01 BMatC= 5.51D-11 BMatP= 9.81D-10
 IDIUse=1 WtCom= 1.00D+00 WtEn= 0.00D+00
 Coeff-Com: -0.349D-05 0.587D-05 0.612D-05-0.542D-04-0.137D-03-0.270D-03
 Coeff-Com: -0.177D-02-0.186D-02-0.157D-02 0.907D-02 0.155D+00 0.272D+00
 Coeff-Com:  0.570D+00
 Coeff:     -0.349D-05 0.587D-05 0.612D-05-0.542D-04-0.137D-03-0.270D-03
 Coeff:     -0.177D-02-0.186D-02-0.157D-02 0.907D-02 0.155D+00 0.272D+00
 Coeff:      0.570D+00
 Gap=     0.165 Goal=   None    Shift=    0.000
 RMSDP=7.21D-08 MaxDP=1.43D-05 DE=-7.51D-10 OVMax= 1.99D-06

 Cycle  14  Pass 1  IDiag  1:
 RMSU=  3.06D-08    CP:  7.51D-01  6.96D-01  6.51D-01  8.52D-01  7.58D-01
                    CP:  7.33D-01  8.95D-01  8.65D-01  8.35D-01  8.96D-01
                    CP:  7.81D-01  7.39D-01  8.24D-01
 E= -959.073790494942     Delta-E=       -0.000000000063 Rises=F Damp=F
 DIIS: error= 7.56D-08 at cycle  14 NSaved=  14.
 NSaved=14 IEnMin=14 EnMin= -959.073790494942     IErMin=14 ErrMin= 7.56D-08
 ErrMax= 7.56D-08  0.00D+00 EMaxC= 1.00D-01 BMatC= 5.22D-12 BMatP= 5.51D-11
 IDIUse=1 WtCom= 1.00D+00 WtEn= 0.00D+00
 Coeff-Com: -0.685D-06 0.123D-05 0.447D-06-0.259D-05-0.133D-04-0.510D-04
 Coeff-Com: -0.475D-03-0.108D-02-0.365D-02-0.678D-02 0.215D-01 0.660D-01
 Coeff-Com:  0.284D+00 0.641D+00
 Coeff:     -0.685D-06 0.123D-05 0.447D-06-0.259D-05-0.133D-04-0.510D-04
 Coeff:     -0.475D-03-0.108D-02-0.365D-02-0.678D-02 0.215D-01 0.660D-01
 Coeff:      0.284D+00 0.641D+00
 Gap=     0.165 Goal=   None    Shift=    0.000
 RMSDP=1.28D-08 MaxDP=2.43D-06 DE=-6.32D-11 OVMax= 3.81D-07

 Cycle  15  Pass 1  IDiag  1:
 RMSU=  7.26D-09    CP:  7.51D-01  6.96D-01  6.51D-01  8.52D-01  7.58D-01
                    CP:  7.33D-01  8.95D-01  8.65D-01  8.34D-01  8.97D-01
                    CP:  7.81D-01  7.69D-01  8.31D-01  8.78D-01
 E= -959.073790494949     Delta-E=       -0.000000000007 Rises=F Damp=F
 DIIS: error= 2.24D-08 at cycle  15 NSaved=  15.
 NSaved=15 IEnMin=15 EnMin= -959.073790494949     IErMin=15 ErrMin= 2.24D-08
 ErrMax= 2.24D-08  0.00D+00 EMaxC= 1.00D-01 BMatC= 2.63D-13 BMatP= 5.22D-12
 IDIUse=1 WtCom= 1.00D+00 WtEn= 0.00D+00
 Coeff-Com: -0.245D-06 0.486D-06 0.237D-08 0.329D-06-0.613D-06-0.895D-05
 Coeff-Com: -0.916D-04-0.281D-03-0.116D-02-0.297D-02 0.242D-02 0.164D-01
 Coeff-Com:  0.924D-01 0.271D+00 0.623D+00
 Coeff:     -0.245D-06 0.486D-06 0.237D-08 0.329D-06-0.613D-06-0.895D-05
 Coeff:     -0.916D-04-0.281D-03-0.116D-02-0.297D-02 0.242D-02 0.164D-01
 Coeff:      0.924D-01 0.271D+00 0.623D+00
 Gap=     0.165 Goal=   None    Shift=    0.000
 RMSDP=2.61D-09 MaxDP=1.56D-07 DE=-7.28D-12 OVMax= 1.87D-07

 Error on total polarization charges =  0.01836
 SCF Done:  E(RN12SX) =  -959.073790495     A.U. after   15 cycles
            NFock= 15  Conv=0.26D-08     -V/T= 2.0055
 KE= 9.538326616239D+02 PE=-5.455339364917D+03 EE= 1.932891431768D+03
 Leave Link  502 at Wed Dec 15 21:54:59 2021, MaxMem=  6710886400 cpu:      5556.4
 (Enter /usr/local/gqt/g09/l601.exe)
 Copying SCF densities to generalized density rwf, IOpCl= 0 IROHF=0.

 **********************************************************************

            Population analysis using the SCF density.

 **********************************************************************

 Orbital symmetries:
       Occupied  (A) (A) (A) (A) (A) (A) (A) (A) (A) (A) (A) (A)
                 (A) (A) (A) (A) (A) (A) (A) (A) (A) (A) (A) (A)
                 (A) (A) (A) (A) (A) (A) (A) (A) (A) (A) (A) (A)
                 (A) (A) (A) (A) (A) (A) (A) (A) (A) (A) (A) (A)
                 (A) (A) (A) (A) (A) (A) (A) (A) (A) (A) (A) (A)
                 (A) (A) (A) (A) (A) (A) (A) (A) (A) (A) (A) (A)
                 (A) (A) (A) (A) (A) (A) (A)
       Virtual   (A) (A) (A) (A) (A) (A) (A) (A) (A) (A) (A) (A)
                 (A) (A) (A) (A) (A) (A) (A) (A) (A) (A) (A) (A)
                 (A) (A) (A) (A) (A) (A) (A) (A) (A) (A) (A) (A)
                 (A) (A) (A) (A) (A) (A) (A) (A) (A) (A) (A) (A)
                 (A) (A) (A) (A) (A) (A) (A) (A) (A) (A) (A) (A)
                 (A) (A) (A) (A) (A) (A) (A) (A) (A) (A) (A) (A)
                 (A) (A) (A) (A) (A) (A) (A) (A) (A) (A) (A) (A)
                 (A) (A) (A) (A) (A) (A) (A) (A) (A) (A) (A) (A)
                 (A) (A) (A) (A) (A) (A) (A) (A) (A) (A) (A) (A)
                 (A) (A) (A) (A) (A) (A) (A) (A) (A) (A) (A) (A)
                 (A) (A) (A) (A) (A) (A) (A) (A) (A) (A) (A) (A)
                 (A) (A) (A) (A) (A) (A) (A) (A) (A) (A) (A) (A)
                 (A) (A) (A) (A) (A) (A) (A) (A) (A) (A) (A) (A)
                 (A) (A) (A) (A) (A) (A) (A) (A) (A) (A) (A) (A)
                 (A) (A) (A) (A) (A) (A) (A) (A) (A) (A) (A) (A)
                 (A) (A) (A) (A) (A) (A) (A) (A) (A) (A) (A) (A)
                 (A) (A) (A) (A) (A) (A) (A) (A) (A) (A) (A) (A)
                 (A) (A) (A) (A) (A) (A) (A) (A) (A) (A) (A) (A)
                 (A) (A) (A) (A) (A) (A) (A) (A) (A) (A) (A) (A)
                 (A) (A) (A) (A) (A) (A) (A) (A) (A) (A) (A) (A)
                 (A) (A) (A) (A) (A) (A) (A) (A) (A) (A) (A) (A)
                 (A) (A) (A) (A) (A) (A) (A) (A) (A) (A) (A) (A)
                 (A) (A) (A) (A) (A) (A) (A) (A) (A) (A) (A) (A)
                 (A) (A) (A) (A) (A) (A) (A) (A) (A) (A) (A) (A)
                 (A) (A) (A) (A) (A) (A) (A) (A) (A) (A) (A) (A)
                 (A) (A) (A) (A) (A) (A) (A) (A) (A) (A) (A) (A)
                 (A) (A) (A) (A) (A) (A) (A) (A) (A) (A) (A) (A)
                 (A) (A) (A) (A) (A) (A) (A) (A) (A) (A) (A) (A)
                 (A) (A) (A) (A) (A) (A) (A) (A) (A) (A) (A) (A)
                 (A) (A) (A) (A) (A) (A) (A) (A) (A) (A) (A) (A)
                 (A) (A) (A) (A) (A) (A) (A) (A) (A) (A) (A) (A)
                 (A) (A) (A) (A) (A) (A) (A) (A) (A) (A) (A) (A)
                 (A) (A) (A) (A) (A) (A) (A) (A) (A) (A) (A) (A)
                 (A) (A) (A) (A) (A) (A) (A) (A) (A) (A) (A) (A)
                 (A) (A) (A) (A) (A) (A) (A) (A) (A) (A) (A) (A)
                 (A) (A) (A) (A) (A) (A) (A) (A) (A) (A) (A) (A)
                 (A) (A) (A) (A) (A) (A) (A) (A) (A) (A) (A) (A)
                 (A) (A) (A) (A) (A) (A) (A) (A) (A) (A) (A) (A)
                 (A) (A) (A) (A) (A) (A) (A) (A) (A) (A) (A) (A)
                 (A) (A) (A) (A) (A) (A) (A) (A) (A) (A) (A) (A)
                 (A) (A) (A) (A) (A) (A) (A) (A) (A) (A) (A) (A)
                 (A) (A) (A) (A) (A) (A) (A) (A) (A) (A) (A) (A)
                 (A) (A) (A) (A) (A) (A) (A) (A) (A) (A) (A) (A)
                 (A) (A) (A) (A) (A) (A) (A) (A) (A)
 The electronic state is 1-A.
 Alpha  occ. eigenvalues --  -19.21656 -19.15506 -19.13571 -14.46303 -14.44801
 Alpha  occ. eigenvalues --  -10.35999 -10.27513 -10.27284 -10.26826 -10.26181
 Alpha  occ. eigenvalues --  -10.25014 -10.23657 -10.23547 -10.23400 -10.23354
 Alpha  occ. eigenvalues --  -10.22942 -10.22644 -10.22482 -10.22394 -10.22247
 Alpha  occ. eigenvalues --  -10.19851  -1.10510  -1.07768  -1.01563  -0.98527
 Alpha  occ. eigenvalues --   -0.89777  -0.86735  -0.82188  -0.80654  -0.76544
 Alpha  occ. eigenvalues --   -0.76231  -0.73875  -0.72182  -0.70820  -0.67703
 Alpha  occ. eigenvalues --   -0.63527  -0.62711  -0.61741  -0.59702  -0.57798
 Alpha  occ. eigenvalues --   -0.54175  -0.53408  -0.51126  -0.51090  -0.50902
 Alpha  occ. eigenvalues --   -0.49738  -0.49169  -0.48451  -0.47406  -0.45562
 Alpha  occ. eigenvalues --   -0.45072  -0.44943  -0.44577  -0.44237  -0.44196
 Alpha  occ. eigenvalues --   -0.42569  -0.42270  -0.41677  -0.41132  -0.40408
 Alpha  occ. eigenvalues --   -0.39638  -0.39167  -0.37362  -0.36629  -0.36198
 Alpha  occ. eigenvalues --   -0.35578  -0.35397  -0.35067  -0.34895  -0.34259
 Alpha  occ. eigenvalues --   -0.32364  -0.31700  -0.29546  -0.29334  -0.27610
 Alpha  occ. eigenvalues --   -0.25370  -0.25243  -0.22931  -0.22226
 Alpha virt. eigenvalues --   -0.05735  -0.01364  -0.01216  -0.00700  -0.00142
 Alpha virt. eigenvalues --    0.00181   0.00601   0.00897   0.01240   0.01610
 Alpha virt. eigenvalues --    0.02263   0.02478   0.02671   0.03213   0.03332
 Alpha virt. eigenvalues --    0.03768   0.04106   0.04404   0.04721   0.05136
 Alpha virt. eigenvalues --    0.05448   0.05756   0.06249   0.06723   0.06938
 Alpha virt. eigenvalues --    0.07212   0.07812   0.08005   0.08124   0.08509
 Alpha virt. eigenvalues --    0.08934   0.08943   0.09202   0.09582   0.09874
 Alpha virt. eigenvalues --    0.10301   0.10564   0.10932   0.11412   0.11519
 Alpha virt. eigenvalues --    0.11674   0.12236   0.12446   0.12757   0.13014
[...]
 00000029,0.00000024,-0.00000077,0.00000009,-0.00000030,0.,-0.00000005,
 0.00000023,0.,0.,-0.00000004,-0.00000002,-0.00000012,0.00000004,0.0000
 0101,0.00000060,-0.00000016,-0.00000014,-0.00000036,-0.00000052,-0.000
 00035,0.00000046,-0.00000073,0.00000028,-0.00000031,0.00000010,0.00000
 016,0.00000005,-0.00000030,-0.00000034,0.00000019,0.00000006,0.0000003
 1,-0.00000033,0.00000025,0.00000201,-0.00000186,0.00000065,0.00000133,
 -0.00000082,-0.00000021,-0.00000310,0.00000248,-0.00000003,0.00000038,
 -0.00000236,0.00000340,-0.00000076,0.00000010,-0.00000017,0.00000114,-
 0.00000030,0.00000030,-0.00000036,-0.00000001,-0.00000018,0.00500109,0
 .03066815,0.00980755,-0.00352951,-0.00072210,0.00152715,-0.00058161,0.
 00074059,-0.00027763,-0.00010586,0.00105115,-0.00035791,0.00236588,-0.
 00097140,0.00071373,0.00019944,0.00013822,0.00004053,0.00032485,-0.000
 25480,-0.00018482,-0.00019830,0.00002390,0.00007082,-0.00027791,0.0000
 6614,-0.00018396,-0.07209442,-0.07311542,-0.04050377,-0.00086920,0.000
 59313,0.00071387,0.00031132,0.00019945,0.00007925,0.00000667,0.0000126
 9,-0.00000578,0.00002028,0.00000824,0.00003099,-0.00000953,0.00010081,
 -0.00003365,-0.00567334,-0.02232452,-0.01449412,-0.00067282,-0.0022429
 2,0.00022123,0.07747178,-0.00025439,0.00000024,0.00006715,0.00019691,0
 .00000448,-0.00007076,0.00000963,0.00000452,0.00005164,-0.00000297,0.0
 0000119,-0.00000680,-0.00000214,-0.00000064,-0.00000423,-0.00000036,0.
 00000024,0.00000019,-0.00000076,-0.00000153,-0.00000030,-0.00000088,-0
 .00000069,-0.00000071,-0.00000022,0.,0.00000001,0.00000029,0.00000008,
 0.,0.00000035,0.00000090,0.00000014,0.00000079,0.00000124,0.00000088,-
 0.00000112,-0.00000253,-0.00000199,0.00000005,0.00000004,0.00000005,0.
 00000015,0.00000084,0.00000043,0.00000003,-0.00000059,-0.00000040,0.00
 000070,-0.00000006,0.00000047,0.00000078,0.00000116,0.00000071,0.00000
 065,0.00000090,-0.00000045,-0.00000117,-0.00000100,0.00000011,0.000000
 50,-0.00000193,-0.00001290,0.00000535,-0.00000049,-0.00000395,0.000000
 88,-0.00000006,0.00000123,0.00000150,0.00000045,0.00000104,-0.00189406
 ,-0.02875583,-0.00507909,0.00365062,0.00207944,-0.00267569,0.00038965,
 -0.00087234,0.00019335,0.00026253,-0.00053129,0.00021355,-0.00238110,0
 .00027921,0.00038100,-0.00014093,-0.00027536,0.00000147,-0.00025050,0.
 00025978,0.00000966,0.00023931,-0.00011437,-0.00004132,0.00029747,-0.0
 0012969,0.00014420,-0.06455349,-0.24016673,-0.10908149,-0.00059676,-0.
 00015000,-0.00012699,-0.00004424,0.00010689,-0.00001701,-0.00002276,-0
 .00005189,0.00000162,-0.00000214,-0.00003461,0.00000365,0.00002163,-0.
 00012909,0.00003798,-0.00206458,-0.00633644,-0.00393767,0.00096434,0.0
 0613494,0.00264222,0.06639046,0.26804746,0.00007832,-0.00001849,-0.000
 00639,-0.00006955,0.00001823,0.00002409,0.00000260,-0.00000728,-0.0000
 2792,0.00000108,-0.00000207,0.00000103,0.00000082,0.00000359,0.0000034
 8,-0.00000012,0.00000021,-0.00000020,0.00000011,-0.00000007,0.00000101
 ,0.00000009,0.00000045,-0.00000029,0.00000009,0.00000005,-0.00000005,0
 .,0.00000011,0.,-0.00000074,-0.00000063,0.00000038,-0.00000007,-0.0000
 0015,0.00000040,0.00000100,-0.00000002,0.00000188,-0.00000027,0.000000
 24,-0.00000011,-0.00000005,-0.00000047,0.00000012,0.00000010,0.0000003
 9,-0.00000021,-0.00000035,0.00000025,-0.00000024,-0.00000141,0.0000015
 5,-0.00000144,-0.00000086,0.00000098,-0.00000045,0.00000253,-0.0000024
 1,0.00000054,-0.00000049,0.00000118,0.00000406,-0.00000202,0.00000007,
 0.00000159,-0.00000072,0.00000047,-0.00000074,0.00000070,-0.00000009,-
 0.00000022,0.00544907,0.00858395,0.00521932,-0.00131507,0.00172546,0.0
 0014396,0.00039720,0.00039923,-0.00030011,0.00017816,-0.00023734,-0.00
 007655,-0.00044637,-0.00063515,0.00026096,-0.00017803,0.00001794,0.000
 00707,-0.00004328,0.00002941,0.00003655,0.00001222,0.00002520,0.000010
 18,-0.00012416,0.00003365,-0.00000637,-0.03991970,-0.11269252,-0.11222
 729,-0.00045543,-0.00032748,0.00036292,-0.00005120,-0.00013908,-0.0000
 0731,0.00000843,0.00001942,0.00000230,-0.00000539,0.00001361,-0.000016
 02,-0.00001846,0.00004891,-0.00001277,0.00289681,0.01222309,0.00638889
 ,-0.00970779,-0.02635651,-0.01299376,0.04303216,0.11702998,0.11356440,
 -0.00001078,-0.00016439,0.00009149,-0.00002927,0.00015798,0.00001548,0
 .00003890,-0.00004626,-0.00008437,0.00001495,-0.00001106,-0.00001856,0
 .00000380,0.00001114,0.00000651,0.00000069,-0.00000102,0.00000025,-0.0
 0000814,0.00000254,0.00000721,0.00000031,0.00000138,0.00000095,0.00000
 080,-0.00000027,-0.00000049,0.,0.00000006,0.,-0.00000081,-0.00000172,-
 0.00000197,-0.00000465,-0.00000414,-0.00000438,0.00000180,0.00000590,0
 .00000963,0.00000041,-0.00000099,-0.00000041,-0.00000097,0.00000017,0.
 00000011,0.00000011,0.00000197,-0.00000174,0.00000023,0.00000073,-0.00
 000041,0.00001297,-0.00000704,-0.00000777,0.00000566,0.00000029,-0.000
 00728,-0.00001125,0.00000589,0.00000942,-0.00000115,0.00000973,0.00000
 117,-0.00000422,-0.00000023,0.00000244,-0.00000661,0.00000183,-0.00000
 087,-0.00000017,-0.00000224,0.00000013,0.00097916,0.00133723,-0.000606
 21,-0.00013271,-0.00147596,0.00032452,-0.00034357,-0.00072563,0.000110
 23,-0.00063194,0.00192116,-0.00035382,0.00186640,-0.01232691,-0.011068
 77,0.00042704,0.00053349,0.00012880,0.00019618,-0.00049502,0.00002660,
 -0.00048339,0.00000933,0.00007439,0.00008353,0.00042331,0.00004891,-0.
 00024238,-0.00045671,-0.00049827,-0.05702109,0.02473463,0.03885063,-0.
 00001539,0.00000406,-0.00000272,-0.00000427,-0.00000459,-0.00004257,-0
 .00001271,-0.00001205,-0.00001680,0.00000238,0.00000764,-0.00001915,0.
 00005324,0.00014803,0.00007138,0.00001833,0.00009081,0.00001763,-0.001
 08848,-0.00000684,0.00003510,0.05518355,-0.00081183,-0.00005616,0.0000
 0082,0.00059751,0.00005148,-0.00015132,0.00000474,0.00001464,0.0001684
 8,-0.00000974,0.00000435,-0.00002353,-0.00001439,-0.00000158,-0.000011
 04,-0.00000063,0.00000127,0.00000032,0.00000418,-0.00000129,-0.0000028
 0,-0.00000154,-0.00000205,-0.00000143,-0.00000064,0.00000013,0.0000002
 8,0.00000033,0.00000012,-0.00000005,0.00000143,0.00000266,0.00000057,0
 .00000414,0.00000536,0.00000428,-0.00000296,-0.00000873,-0.00000964,0.
 00000014,0.00000067,0.00000025,0.00000100,0.00000089,0.00000055,-0.000
 00006,-0.00000219,0.00000088,0.00000017,-0.00000032,0.00000085,-0.0000
 0582,0.00000473,0.00000484,-0.00000211,0.00000120,0.00000258,0.0000040
 6,-0.00000496,-0.00000423,-0.00000132,-0.00000106,-0.00003005,0.000013
 93,-0.00000210,-0.00001031,0.00000173,-0.00000016,0.00000323,0.0000043
 3,0.00000005,0.00000245,0.00224848,0.00152802,-0.00040196,-0.00012762,
 -0.00132501,0.00010083,-0.00057480,-0.00166412,0.00207001,-0.00320621,
 0.00135660,-0.00221238,0.00527803,-0.03089984,-0.02429855,0.00031411,0
 .00033226,0.00012674,0.00011693,-0.00051449,0.00004873,-0.00063185,-0.
 00014177,-0.00003412,-0.00012711,0.00075964,0.00019458,-0.00004170,-0.
 00008790,0.00000886,0.02140507,-0.12292787,-0.11749836,-0.00006757,0.0
 0000609,0.00002367,-0.00002307,-0.00002679,-0.00003003,-0.00004616,-0.
 00006396,-0.00003163,0.00005645,-0.00001335,0.00002783,-0.00002313,0.0
 0007050,0.00002406,-0.00004706,0.00012010,0.00000307,-0.00022141,0.000
 21765,0.00008715,-0.02203326,0.14484432,-0.00008701,0.00003540,0.00001
 091,0.00007320,-0.00002664,-0.00001558,-0.00001357,0.00002370,0.000023
 62,0.00000356,-0.00000751,0.00000427,-0.00000094,-0.00000435,-0.000005
 09,-0.00000045,-0.00000011,0.,-0.00000057,-0.00000082,-0.00000290,-0.0
 0000062,-0.00000034,-0.00000054,-0.00000030,0.00000020,-0.00000005,0.0
 0000022,0.00000003,0.00000004,-0.00000113,0.00000013,0.00000023,0.0000
 0058,0.00000153,0.00000193,-0.00000267,-0.00000363,-0.00000422,-0.0000
 0002,0.00000022,0.00000013,0.00000055,0.00000052,0.00000026,0.00000026
 ,-0.00000069,0.00000035,0.00000059,0.00000009,0.00000027,-0.00000146,0
 .00000234,0.00000290,-0.00000039,0.00000058,0.00000190,0.00000119,-0.0
 0000185,-0.00000272,-0.00000075,-0.00000618,-0.00000009,0.00000231,-0.
 00000004,-0.00000212,0.00000356,-0.00000130,0.00000084,0.00000053,0.00
 000120,-0.00000015,-0.00011396,-0.00068548,0.00035207,-0.00009916,0.00
 003562,-0.00008820,-0.00042454,0.00012136,-0.00046147,0.00015244,0.001
 07730,0.00007980,-0.00190901,0.00444969,0.01090445,-0.00006690,-0.0001
 4067,-0.00001567,-0.00005016,0.00006587,-0.00000504,0.00001792,0.00003
 692,0.00002249,0.00001484,0.00003951,-0.00005769,0.00061180,-0.0002842
 1,-0.00031176,0.03699593,-0.12321112,-0.24151684,-0.00001791,-0.000013
 22,0.00000337,0.00000077,-0.00000040,0.00001336,0.00000384,0.00000297,
 0.00001317,0.00000133,-0.00000288,-0.00000985,0.00005134,0.00025867,0.
 00011713,0.00001745,-0.00000774,0.00005620,-0.00002028,0.00045482,0.00
 041997,-0.04036384,0.13181764,0.25246615,0.00006477,-0.00018968,-0.000
 02266,-0.00013217,0.00021204,0.00010607,0.00003284,-0.00001185,-0.0001
 8885,0.00001185,-0.00002514,0.00001942,0.00000344,0.00001281,0.0000300
 3,0.00000012,0.00000061,0.00000026,0.00001197,0.00000245,-0.00000824,0
 .00000027,0.00000013,-0.00000082,-0.00000053,0.00000037,0.00000049,-0.
 00000033,-0.00000016,-0.00000012,-0.00000240,-0.00000111,0.00000100,0.
 00000090,0.00000295,0.00000219,0.00000861,-0.00000157,0.00000272,-0.00
 000094,0.00000102,-0.00000011,0.00000014,-0.00000134,-0.00000040,0.000
 00017,-0.00000175,0.00000243,-0.00000197,0.00000067,-0.00000170,-0.000
 02217,0.00000661,0.00000893,-0.00000904,-0.00000299,0.00001093,0.00001
 907,-0.00000560,-0.00001286,0.00000148,-0.00000050,0.00001925,-0.00000
 760,0.00000196,0.00000554,0.00000135,-0.00000051,-0.00000144,0.0000004
 9,0.00000097,-0.00000444,0.00092454,0.00121347,0.00053622,-0.00011515,
 -0.00116875,-0.00002957,-0.00003220,-0.00074291,-0.00002736,-0.0006732
 8,0.00116426,0.00012812,0.00702744,-0.01003908,0.01351154,0.00030806,0
 .00042261,-0.00027509,0.00017250,-0.00040345,0.00001225,-0.00037487,-0
 .00000825,0.00004799,0.00000329,0.00027273,-0.00016883,-0.00066941,-0.
 00032558,0.00068858,-0.10582198,0.05309216,-0.09989765,-0.00000738,0.0
 0000847,0.00000424,0.00000673,0.00000839,0.00004078,-0.00000649,-0.000
 00473,0.00002567,0.00000106,0.00001196,0.00000946,-0.00004358,-0.00004
 649,-0.00013740,-0.00068294,-0.00019113,-0.00020283,-0.00060608,-0.000
 16058,0.00033896,0.00239331,-0.00247198,0.00557432,0.10793179,-0.00078
 329,-0.00002649,0.00023324,0.00056726,0.00004163,-0.00021832,0.0000204
 4,0.00000710,0.00018495,0.00000022,0.00001559,-0.00003287,-0.00000989,
 -0.00000943,-0.00001508,-0.00000051,0.00000084,0.00000018,-0.00000009,
 -0.00000040,0.00000200,-0.00000101,-0.00000129,-0.00000131,-0.00000006
 ,0.,-0.00000004,0.00000040,0.00000024,-0.00000006,-0.00000023,0.000001
 17,0.00000048,0.00000328,0.00000316,0.00000296,-0.00000314,-0.00000822
 ,-0.00000638,0.00000014,0.00000020,0.00000021,-0.00000012,0.00000120,0
 .00000116,0.00000048,-0.00000107,-0.00000033,0.00000061,-0.00000021,0.
 00000072,0.00000160,0.00000233,-0.00000137,0.00000095,0.00000218,-0.00
 000253,-0.00000185,-0.00000291,0.00000232,-0.00000245,0.00000322,-0.00
 003892,0.00001540,-0.00000171,-0.00001009,-0.00000199,0.00000105,0.000
 00229,0.00000222,-0.00000066,0.00000246,0.00194011,0.00123277,-0.00000
 431,-0.00003595,-0.00103052,0.00007381,-0.00069966,-0.00212339,-0.0013
 4417,-0.00275817,0.00052449,0.00264845,0.01541080,-0.02592410,0.026180
 79,0.00019552,0.00024734,-0.00023429,0.00009414,-0.00041420,0.00003337
 ,-0.00046986,-0.00014410,0.00019947,-0.00027944,0.00055514,-0.00028518
 ,-0.00009884,0.00001590,0.00034497,0.04765637,-0.09467637,0.08762325,-
 0.00007055,-0.00000079,-0.00000995,-0.00001449,-0.00001542,0.00003586,
 -0.00003880,-0.00005176,0.00005396,0.00004558,-0.00001780,-0.00003990,
 -0.00006525,0.00007578,-0.00016662,-0.00051149,0.00009459,-0.00023445,
 -0.00014385,0.00005938,-0.00011206,-0.00809724,0.00905331,-0.01337471,
 -0.05278977,0.11324612,0.00017894,0.00003626,-0.00001818,-0.00011067,-
 0.00005352,0.00004798,-0.00001444,0.00000800,-0.00002866,0.00001459,-0
 .00000951,0.00000432,0.00000487,-0.00000193,0.00000152,0.00000009,0.00
 000033,0.00000029,0.00000480,0.00000087,-0.00000283,0.00000028,-0.0000
 0023,0.00000055,-0.00000019,-0.00000003,0.00000033,-0.00000025,-0.0000
 0011,-0.00000008,-0.00000030,-0.00000026,-0.00000058,0.00000092,0.0000
 0113,0.00000062,0.00000312,0.00000102,0.00000015,-0.00000014,0.0000003
 6,-0.00000007,0.00000008,-0.00000063,-0.00000044,0.00000015,-0.0000010
 4,0.00000166,-0.00000102,0.00000017,-0.00000055,-0.00000842,0.00000135
 ,0.00000299,-0.00000384,-0.00000138,0.00000419,0.00000724,-0.00000149,
 -0.00000469,0.00000013,0.00000125,0.00000513,-0.00000258,0.00000123,0.
 00000227,-0.00000033,0.,-0.00000056,-0.00000063,0.00000026,-0.00000104
 ,-0.00061144,0.00021942,-0.00006060,0.00022000,0.00065104,-0.00014650,
 0.00040142,0.00031460,-0.00031768,0.00047352,-0.00168492,-0.00014874,0
 .00160930,0.00404410,0.00209550,-0.00014390,-0.00015247,0.00009935,-0.
 00007050,0.00021596,-0.00001887,0.00025922,0.00000378,-0.00002731,-0.0
 0002862,-0.00028935,0.00008440,-0.00055042,0.00038751,0.00027946,-0.09
 707237,0.09233600,-0.22215441,0.00003088,0.00001130,-0.00000433,0.0000
 0164,0.00000445,-0.00000632,0.00000735,0.00000706,-0.00000381,-0.00001
 113,-0.00000108,-0.00000845,-0.00003300,-0.00040653,0.00003562,0.00000
 068,0.00008240,0.00034667,0.00013204,-0.00019310,-0.00064959,-0.012647
 40,0.01119213,-0.01900643,0.10526683,-0.10261303,0.23365926,0.00057930
 ,0.00029684,-0.00010698,-0.00009607,-0.00054032,0.00008551,-0.00006047
 ,0.00003921,0.00009647,0.00002426,0.00000524,0.00001413,0.00001710,-0.
 00003066,-0.00003948,0.00000055,-0.00000077,-0.00000050,-0.00000319,0.
 00000596,-0.00000156,0.00000065,-0.00000142,0.00000075,0.00000006,-0.0
 0000036,-0.00000010,0.,0.00000007,0.00000021,0.00000296,0.00000186,0.0
 0000140,-0.00000074,0.00000412,0.00000134,0.00002558,-0.00001919,-0.00
 000212,0.00000098,-0.00000043,0.00000029,-0.00000070,0.00000214,-0.000
 00042,-0.00000048,-0.00000016,-0.00000028,0.00000090,-0.00000074,0.000
 00160,0.00000988,-0.00000395,0.00000092,0.00000494,-0.00000013,-0.0000
 0332,-0.00001062,0.00000518,0.00000322,-0.00000852,-0.00000295,-0.0000
 1590,0.00000706,0.00000026,-0.00000552,0.00000067,-0.00000092,0.000000
 94,-0.00000427,0.00000081,0.00000539,0.00115482,-0.00189085,-0.0001145
 4,-0.00043388,0.00086714,0.00007355,0.00067603,-0.00012845,-0.00025206
 ,0.00041223,0.00343657,-0.00031143,-0.01525464,-0.00085064,0.00244274,
 0.00013637,-0.00030963,0.00003398,-0.00014551,0.00004385,0.00000233,0.
 00004776,0.00000403,0.00001188,0.00002358,-0.00007229,-0.00000434,0.00
 029554,-0.00018024,0.00019580,-0.32856678,0.02428751,0.04776547,0.0000
 1996,0.00001259,-0.00000170,0.00000025,-0.00002510,-0.00000160,0.00000
 920,-0.00000129,0.00000186,-0.00001423,-0.00000645,-0.00000177,0.00000
 034,-0.00000866,0.00000415,0.00007172,0.00003286,0.00001565,-0.0000101
 1,-0.00005259,-0.00009403,-0.00122982,0.00043719,-0.00035288,-0.009715
 66,0.00092246,0.00269349,0.35203300,0.00039881,-0.00089601,0.00015597,
 -0.00039944,0.00054788,0.00013891,0.00014609,-0.00016449,-0.00049628,0
 .00002541,-0.00001516,-0.00000375,0.00000847,0.00005445,0.00007052,0.0
 0000213,-0.00000125,0.00000018,0.00001119,0.00000643,-0.00000267,0.000
 00174,0.00000212,0.00000206,0.00000032,-0.00000050,0.00000048,-0.00000
 077,-0.00000039,-0.00000019,-0.00000128,-0.00000579,-0.00000252,-0.000
 00676,-0.00000518,-0.00000981,0.00001328,0.00002648,0.00001463,-0.0000
 0121,-0.00000116,-0.00000102,-0.00000130,-0.00000279,-0.00000131,-0.00
 000016,0.00000040,0.00000166,-0.00000297,0.00000153,-0.00000304,-0.000
 01261,-0.00000537,0.00000223,-0.00000474,-0.00000602,0.00000702,0.0000
 0875,0.00000496,-0.00000403,0.00000531,0.00003932,0.00004902,-0.000028
 99,-0.00000085,0.00002125,-0.00001802,-0.00000081,-0.00000998,-0.00001
 004,-0.00000210,-0.00000707,0.00036152,-0.00687319,0.00057902,-0.00198
 482,0.00011894,0.00029024,0.00014690,0.00040768,-0.00010250,-0.0008178
 4,0.00112184,-0.00006983,-0.04091757,-0.00131768,0.00706325,0.00017572
 ,-0.00050405,0.00003267,-0.00024498,0.00000467,0.00002433,0.00003867,0
 .00002826,-0.00000050,0.00013819,-0.00004521,-0.00002388,0.00094750,-0
 .00076799,-0.00020127,0.03981204,-0.05048741,-0.00690224,-0.00001897,0
 .00001608,0.00000014,0.00000497,-0.00005270,0.00000570,0.00001459,-0.0
 0000357,0.00000046,-0.00000262,-0.00002996,0.00000403,-0.00004408,0.00
 032116,0.00003839,-0.00010030,-0.00001608,-0.00008455,0.00001300,0.000
 35614,0.00026706,0.01646431,-0.00063038,-0.00065242,0.01215828,-0.0007
 3391,-0.00411140,-0.02627772,0.05951166,-0.00012696,0.00002528,0.00026
 012,0.00013339,-0.00010841,-0.00024633,0.00003330,-0.00012351,0.000161
 83,-0.00000233,0.00004083,-0.00008015,-0.00000553,-0.00000351,-0.00003
 674,0.00000068,-0.00000313,-0.00000044,-0.00002545,-0.00000418,0.00001
 547,0.00000047,0.00000105,0.00000357,0.00000150,-0.00000066,-0.0000012
 0,0.00000050,-0.00000011,0.00000026,0.00000243,0.00000156,-0.00000472,
 -0.00000623,-0.00000745,-0.00000816,0.00000022,0.00000931,0.00000391,0
 .00000154,-0.00000184,-0.00000034,-0.00000077,0.00000176,0.00000072,0.
 00000058,0.00000233,-0.00000332,0.00000300,-0.00000057,0.00000211,0.00
 004120,-0.00001551,-0.00001488,0.00001733,0.00000216,-0.00001963,-0.00
 003537,0.00001641,0.00002408,-0.00000501,0.00002558,-0.00003699,0.0000
 0702,-0.00000244,-0.00000203,-0.00001466,0.00000003,0.00000199,-0.0000
 0113,-0.00000565,0.00000696,-0.00014990,0.00082449,0.00052892,0.000269
 91,-0.00000991,0.00044129,-0.00018104,-0.00004803,-0.00039510,0.000101
 26,-0.00050063,0.00043109,0.00519541,-0.00007961,-0.00261466,-0.000031
 36,0.00007063,0.00010135,0.00002760,-0.00000202,-0.00005408,0.00000807
 ,0.00000082,0.00006154,-0.00002641,0.00000050,-0.00005682,-0.00012726,
 0.00013910,-0.00013155,0.04659949,-0.00415107,-0.05539268,-0.00000052,
 -0.00000124,0.00001103,-0.00000430,0.00000358,-0.00002587,-0.00000106,
 0.00000089,0.00001348,0.00000188,0.00000171,-0.00001474,0.00003536,-0.
 00007419,0.00010174,0.00019077,0.00008243,0.00011449,-0.00028611,0.000
 01728,-0.00012705,0.02591481,-0.00116420,-0.00298941,-0.02541381,0.001
 11911,0.00593849,-0.05214254,0.00392101,0.05403244\\0.00001625,0.00001
 348,-0.00000905,-0.00001370,-0.00000684,0.00001349,0.00000260,-0.00000
 153,0.00000102,-0.00000299,-0.00000469,-0.00000058,0.00000421,-0.00000
 545,0.00000059,-0.00000157,0.00000272,0.00000433,-0.00000125,-0.000001
 41,0.00000041,0.00000238,-0.00000122,-0.00000250,-0.00000041,-0.000001
 43,0.00000180,0.00000004,-0.00000055,0.00000032,-0.00000404,0.00000200
 ,0.00000145,-0.00000049,0.00000148,-0.00000145,-0.00000154,-0.00000424
 ,-0.00000481,-0.00000088,0.00000202,0.00000335,0.00000096,0.00000090,0
 .00000306,0.00000017,0.00000280,0.00000013,0.00000013,0.00000310,0.000
 00044,0.00000510,0.00000078,-0.00000230,0.00000296,-0.00000164,-0.0000
 0008,-0.00000508,-0.00000239,-0.00000286,-0.00000203,0.00000149,0.0000
 0171,-0.00000095,-0.00000507,0.00000091,0.00000123,-0.00000239,0.00000
 116,0.00000236,-0.00000284,-0.00000062,0.00001266,-0.00000019,-0.00000
 700,-0.00000105,-0.00000092,0.00000229,-0.00001107,-0.00000595,-0.0000
 0056,0.00000291,-0.00001348,0.00000482,-0.00001497,0.00001925,-0.00000
 176,0.00000413,-0.00000262,-0.00000004,-0.00000186,0.00000397,0.000001
 69,0.00000273,-0.00000153,0.00000175,-0.00000317,0.00000286,0.00000405
 ,0.00000171,0.00000241,0.00000254,0.00000198,-0.00000206,-0.00000617,0
 .00000098,0.00000324,-0.00000075,-0.00000081,0.00000230,0.00000262,-0.
 00000074,0.00000229,0.00000420,0.00000014,-0.00000044,0.00000209,0.000
 00048,-0.00000081,-0.00000441,0.00000203,0.00000028,-0.00000360,-0.000
 00088,0.00000113,-0.00000427,0.00000012,0.00000182,-0.00000301,0.00000
 050,-0.00000143,-0.00000315,0.00000074,0.00000086,-0.00000123\\\@


 The arm of the moral universe is long, but it bends toward justice.
 -- Martin Luther King, Jr.
 Job cpu time:       2 days 21 hours 40 minutes 54.9 seconds.
 File lengths (MBytes):  RWF=   1642 Int=      0 D2E=      0 Chk=     44 Scr=      1
 Normal termination of Gaussian 09 at Thu Dec 16 04:46:58 2021.
