 Entering Gaussian System, Link 0=g09
 Input=reag_NHC12_et.gjf
 Output=reag_NHC12_et.log
 Initial command:
 /usr/local/gqt/g09/l1.exe "/usr/local/gqt/lixogaussian/Gau-30952.inp" -scrdir="/usr/local/gqt/lixogaussian/"
 Entering Link 1 = /usr/local/gqt/g09/l1.exe PID=     30954.
  
 Copyright (c) 1988,1990,1992,1993,1995,1998,2003,2009,2013,
            Gaussian, Inc.  All Rights Reserved.
  
 This is part of the Gaussian(R) 09 program.  It is based on
 the Gaussian(R) 03 system (copyright 2003, Gaussian, Inc.),
 the Gaussian(R) 98 system (copyright 1998, Gaussian, Inc.),
 the Gaussian(R) 94 system (copyright 1995, Gaussian, Inc.),
 the Gaussian 92(TM) system (copyright 1992, Gaussian, Inc.),
 the Gaussian 90(TM) system (copyright 1990, Gaussian, Inc.),
 the Gaussian 88(TM) system (copyright 1988, Gaussian, Inc.),
 the Gaussian 86(TM) system (copyright 1986, Carnegie Mellon
 University), and the Gaussian 82(TM) system (copyright 1983,
 Carnegie Mellon University). Gaussian is a federally registered
 trademark of Gaussian, Inc.
  
 This software contains proprietary and confidential information,
 including trade secrets, belonging to Gaussian, Inc.
  
 This software is provided under written license and may be
 used, copied, transmitted, or stored only in accord with that
 written license.
  
 The following legend is applicable only to US Government
 contracts under FAR:
  
                    RESTRICTED RIGHTS LEGEND
  
 Use, reproduction and disclosure by the US Government is
 subject to restrictions as set forth in subparagraphs (a)
 and (c) of the Commercial Computer Software - Restricted
 Rights clause in FAR 52.227-19.
  
 Gaussian, Inc.
 340 Quinnipiac St., Bldg. 40, Wallingford CT 06492
  
  
 ---------------------------------------------------------------
 Warning -- This program may not be used in any manner that
 competes with the business of Gaussian, Inc. or will provide
 assistance to any competitor of Gaussian, Inc.  The licensee
 of this program is prohibited from giving any competitor of
 Gaussian, Inc. access to this program.  By using this program,
 the user acknowledges that Gaussian, Inc. is engaged in the
 business of creating and licensing software in the field of
 computational chemistry and represents and warrants to the
 licensee that it is not a competitor of Gaussian, Inc. and that
 it will not use this program in any manner prohibited above.
 ---------------------------------------------------------------
  

 Cite this work as:
 Gaussian 09, Revision D.01,
 M. J. Frisch, G. W. Trucks, H. B. Schlegel, G. E. Scuseria, 
 M. A. Robb, J. R. Cheeseman, G. Scalmani, V. Barone, B. Mennucci, 
 G. A. Petersson, H. Nakatsuji, M. Caricato, X. Li, H. P. Hratchian, 
 A. F. Izmaylov, J. Bloino, G. Zheng, J. L. Sonnenberg, M. Hada, 
 M. Ehara, K. Toyota, R. Fukuda, J. Hasegawa, M. Ishida, T. Nakajima, 
 Y. Honda, O. Kitao, H. Nakai, T. Vreven, J. A. Montgomery, Jr., 
 J. E. Peralta, F. Ogliaro, M. Bearpark, J. J. Heyd, E. Brothers, 
 K. N. Kudin, V. N. Staroverov, T. Keith, R. Kobayashi, J. Normand, 
 K. Raghavachari, A. Rendell, J. C. Burant, S. S. Iyengar, J. Tomasi, 
 M. Cossi, N. Rega, J. M. Millam, M. Klene, J. E. Knox, J. B. Cross, 
 V. Bakken, C. Adamo, J. Jaramillo, R. Gomperts, R. E. Stratmann, 
 O. Yazyev, A. J. Austin, R. Cammi, C. Pomelli, J. W. Ochterski, 
 R. L. Martin, K. Morokuma, V. G. Zakrzewski, G. A. Voth, 
 P. Salvador, J. J. Dannenberg, S. Dapprich, A. D. Daniels, 
 O. Farkas, J. B. Foresman, J. V. Ortiz, J. Cioslowski, 
 and D. J. Fox, Gaussian, Inc., Wallingford CT, 2013.
 
 ******************************************
 Gaussian 09:  ES64L-G09RevD.01 24-Apr-2013
                 7-Oct-2021 
 ******************************************
 %nprocshared=16
 Will use up to   16 processors via shared memory.
 %mem=50GB
 %chk=reag_NHC12_et.chk
 ------------------------------------------------------------
 #p opt freq n12sx/6-311+g(d,p) scrf=(iefpcm,solvent=ethanol)
 ------------------------------------------------------------
 1/14=-1,18=20,19=15,26=3,38=1/1,3;
 2/9=110,12=2,17=6,18=5,40=1/2;
 3/5=4,6=6,7=111,11=2,16=1,25=1,30=1,70=2201,71=1,72=4,74=-69/1,2,3;
 4//1;
 5/5=2,38=5,53=4/2;
 6/7=2,8=2,9=2,10=2,28=1/1;
 7//1,2,3,16;
 1/14=-1,18=20,19=15,26=3/3(2);
 2/9=110/2;
 99//99;
 2/9=110/2;
 3/5=4,6=6,7=111,11=2,16=1,25=1,30=1,70=2205,71=1,72=4,74=-69/1,2,3;
 4/5=5,16=3,69=1/1;
 5/5=2,38=5,53=4/2;
 7//1,2,3,16;
 1/14=-1,18=20,19=15,26=3/3(-5);
 2/9=110/2;
 6/7=2,8=2,9=2,10=2,19=2,28=1/1;
 99/9=1/99;
 Leave Link    1 at Thu Oct  7 08:12:13 2021, MaxMem=  6710886400 cpu:         0.7
 (Enter /usr/local/gqt/g09/l101.exe)
 -----
 TITLE
 -----
 Symbolic Z-matrix:
 Charge =  0 Multiplicity = 1
 6                     2.94313   0.01033  -0.08362 
 6                     4.97004  -0.99243   0.04221 
 7                     3.75689  -0.93429  -0.6097 
 7                     3.68511   0.54107   0.91578 
 6                     3.39606  -1.78594  -1.72189 
 6                     3.23287   1.60747   1.78232 
 1                     1.21161   0.40167  -0.59378 
 8                     0.27518   0.60245  -0.86738 
 6                     0.18296   1.94821  -1.26741 
 1                     0.48247   2.61436  -0.45042 
 1                     0.86116   2.14924  -2.10392 
 6                    -4.52682  -1.05196  -0.35435 
 6                    -2.18686  -0.52052   1.24454 
 6                    -3.32108  -1.97536  -0.38947 
 1                    -4.93538  -0.85813  -1.34255 
 1                    -5.33174  -1.51275   0.223 
 6                    -2.62773  -1.93215   0.9587 
 1                    -1.83877  -0.399     2.26547 
 1                    -1.39681  -0.20693   0.56288 
 1                    -3.63951  -2.98472  -0.63973 
 1                    -2.62702  -1.65663  -1.16759 
 1                    -1.74675  -2.57158   0.97516 
 1                    -3.30108  -2.28649   1.7406 
 8                    -3.25666   0.44527   1.10763 
 8                    -5.06699   1.20715   0.15805 
 6                    -4.2991    0.28409   0.29962 
 6                    -1.23553   2.26364  -1.67898 
 1                    -1.32469   3.30536  -1.98351 
 1                    -1.54171   1.63727  -2.51561 
 1                    -1.92299   2.08893  -0.85282 
 7                     4.83244   0.12542   1.06741 
 6                     4.15977   2.83117   1.65973 
 1                     4.54077   3.14283   2.63892 
 1                     5.02482   2.61428   1.02275 
 1                     3.63419   3.6876    1.22224 
 6                     3.21015   1.13799   3.24884 
 1                     2.18373   1.00787   3.61029 
 1                     3.72641   0.17872   3.36876 
 1                     3.70264   1.86246   3.90741 
 6                     1.80796   2.00728   1.35643 
 1                     1.72884   2.10227   0.26748 
 1                     1.07164   1.26154   1.67706 
 1                     1.5158    2.96881   1.79372 
 6                     1.97904  -1.40157  -2.18655 
 1                     1.9278   -1.3106   -3.27751 
 1                     1.24188  -2.15363  -1.88307 
 1                     1.66597  -0.4417   -1.76024 
 6                     4.38193  -1.59361  -2.88923 
 1                     5.41789  -1.55262  -2.53397 
 1                     4.31244  -2.41639  -3.60988 
 1                     4.18177  -0.66234  -3.43124 
 6                     3.4055   -3.2652   -1.29374 
 1                     2.38731  -3.65096  -1.16887 
 1                     3.90726  -3.89306  -2.03882 
 1                     3.92926  -3.40143  -0.34073 
 6                     6.08499  -1.97973  -0.34986 
 1                     6.70709  -2.24238   0.51333 
 1                     5.6701   -2.91051  -0.75313 
 1                     6.74444  -1.55374  -1.11456 
 
 Add virtual bond connecting atoms H41        and H10        Dist= 2.89D+00.
 Add virtual bond connecting atoms H47        and H7         Dist= 2.85D+00.
 Add virtual bond connecting atoms H19        and O8         Dist= 4.43D+00.
 NAtoms=     59 NQM=       59 NQMF=       0 NMMI=      0 NMMIF=      0
                NMic=       0 NMicF=      0.
                    Isotopes and Nuclear Properties:
 (Nuclear quadrupole moments (NQMom) in fm**2, nuclear magnetic moments (NMagM)
  in nuclear magnetons)

  Atom         1           2           3           4           5           6           7           8           9          10
 IAtWgt=          12          12          14          14          12          12           1          16          12           1
 AtmWgt=  12.0000000  12.0000000  14.0030740  14.0030740  12.0000000  12.0000000   1.0078250  15.9949146  12.0000000   1.0078250
 NucSpn=           0           0           2           2           0           0           1           0           0           1
 AtZEff=   0.0000000   0.0000000   0.0000000   0.0000000   0.0000000   0.0000000   0.0000000   0.0000000   0.0000000   0.0000000
 NQMom=    0.0000000   0.0000000   2.0440000   2.0440000   0.0000000   0.0000000   0.0000000   0.0000000   0.0000000   0.0000000
 NMagM=    0.0000000   0.0000000   0.4037610   0.4037610   0.0000000   0.0000000   2.7928460   0.0000000   0.0000000   2.7928460
 AtZNuc=   6.0000000   6.0000000   7.0000000   7.0000000   6.0000000   6.0000000   1.0000000   8.0000000   6.0000000   1.0000000

  Atom        11          12          13          14          15          16          17          18          19          20
 IAtWgt=           1          12          12          12           1           1          12           1           1           1
 AtmWgt=   1.0078250  12.0000000  12.0000000  12.0000000   1.0078250   1.0078250  12.0000000   1.0078250   1.0078250   1.0078250
 NucSpn=           1           0           0           0           1           1           0           1           1           1
 AtZEff=   0.0000000   0.0000000   0.0000000   0.0000000   0.0000000   0.0000000   0.0000000   0.0000000   0.0000000   0.0000000
 NQMom=    0.0000000   0.0000000   0.0000000   0.0000000   0.0000000   0.0000000   0.0000000   0.0000000   0.0000000   0.0000000
 NMagM=    2.7928460   0.0000000   0.0000000   0.0000000   2.7928460   2.7928460   0.0000000   2.7928460   2.7928460   2.7928460
 AtZNuc=   1.0000000   6.0000000   6.0000000   6.0000000   1.0000000   1.0000000   6.0000000   1.0000000   1.0000000   1.0000000

  Atom        21          22          23          24          25          26          27          28          29          30
 IAtWgt=           1           1           1          16          16          12          12           1           1           1
 AtmWgt=   1.0078250   1.0078250   1.0078250  15.9949146  15.9949146  12.0000000  12.0000000   1.0078250   1.0078250   1.0078250
 NucSpn=           1           1           1           0           0           0           0           1           1           1
 AtZEff=   0.0000000   0.0000000   0.0000000   0.0000000   0.0000000   0.0000000   0.0000000   0.0000000   0.0000000   0.0000000
 NQMom=    0.0000000   0.0000000   0.0000000   0.0000000   0.0000000   0.0000000   0.0000000   0.0000000   0.0000000   0.0000000
 NMagM=    2.7928460   2.7928460   2.7928460   0.0000000   0.0000000   0.0000000   0.0000000   2.7928460   2.7928460   2.7928460
 AtZNuc=   1.0000000   1.0000000   1.0000000   8.0000000   8.0000000   6.0000000   6.0000000   1.0000000   1.0000000   1.0000000

  Atom        31          32          33          34          35          36          37          38          39          40
 IAtWgt=          14          12           1           1           1          12           1           1           1          12
 AtmWgt=  14.0030740  12.0000000   1.0078250   1.0078250   1.0078250  12.0000000   1.0078250   1.0078250   1.0078250  12.0000000
 NucSpn=           2           0           1           1           1           0           1           1           1           0
 AtZEff=   0.0000000   0.0000000   0.0000000   0.0000000   0.0000000   0.0000000   0.0000000   0.0000000   0.0000000   0.0000000
 NQMom=    2.0440000   0.0000000   0.0000000   0.0000000   0.0000000   0.0000000   0.0000000   0.0000000   0.0000000   0.0000000
 NMagM=    0.4037610   0.0000000   2.7928460   2.7928460   2.7928460   0.0000000   2.7928460   2.7928460   2.7928460   0.0000000
 AtZNuc=   7.0000000   6.0000000   1.0000000   1.0000000   1.0000000   6.0000000   1.0000000   1.0000000   1.0000000   6.0000000

  Atom        41          42          43          44          45          46          47          48          49          50
 IAtWgt=           1           1           1          12           1           1           1          12           1           1
 AtmWgt=   1.0078250   1.0078250   1.0078250  12.0000000   1.0078250   1.0078250   1.0078250  12.0000000   1.0078250   1.0078250
 NucSpn=           1           1           1           0           1           1           1           0           1           1
 AtZEff=   0.0000000   0.0000000   0.0000000   0.0000000   0.0000000   0.0000000   0.0000000   0.0000000   0.0000000   0.0000000
 NQMom=    0.0000000   0.0000000   0.0000000   0.0000000   0.0000000   0.0000000   0.0000000   0.0000000   0.0000000   0.0000000
 NMagM=    2.7928460   2.7928460   2.7928460   0.0000000   2.7928460   2.7928460   2.7928460   0.0000000   2.7928460   2.7928460
 AtZNuc=   1.0000000   1.0000000   1.0000000   6.0000000   1.0000000   1.0000000   1.0000000   6.0000000   1.0000000   1.0000000

  Atom        51          52          53          54          55          56          57          58          59
 IAtWgt=           1          12           1           1           1          12           1           1           1
 AtmWgt=   1.0078250  12.0000000   1.0078250   1.0078250   1.0078250  12.0000000   1.0078250   1.0078250   1.0078250
 NucSpn=           1           0           1           1           1           0           1           1           1
 AtZEff=   0.0000000   0.0000000   0.0000000   0.0000000   0.0000000   0.0000000   0.0000000   0.0000000   0.0000000
 NQMom=    0.0000000   0.0000000   0.0000000   0.0000000   0.0000000   0.0000000   0.0000000   0.0000000   0.0000000
 NMagM=    2.7928460   0.0000000   2.7928460   2.7928460   2.7928460   0.0000000   2.7928460   2.7928460   2.7928460
 AtZNuc=   1.0000000   6.0000000   1.0000000   1.0000000   1.0000000   6.0000000   1.0000000   1.0000000   1.0000000
 Leave Link  101 at Thu Oct  7 08:12:13 2021, MaxMem=  6710886400 cpu:         7.3
 (Enter /usr/local/gqt/g09/l103.exe)

 GradGradGradGradGradGradGradGradGradGradGradGradGradGradGradGradGradGrad
 Berny optimization.
 Initialization pass.
                           ----------------------------
                           !    Initial Parameters    !
                           ! (Angstroms and Degrees)  !
 --------------------------                            --------------------------
 ! Name  Definition              Value          Derivative Info.                !
 --------------------------------------------------------------------------------
 ! R1    R(1,3)                  1.3533         estimate D2E/DX2                !
 ! R2    R(1,4)                  1.3531         estimate D2E/DX2                !
 ! R3    R(2,3)                  1.3784         estimate D2E/DX2                !
 ! R4    R(2,31)                 1.523          estimate D2E/DX2                !
 ! R5    R(2,56)                 1.54           estimate D2E/DX2                !
 ! R6    R(3,5)                  1.4465         estimate D2E/DX2                !
 ! R7    R(4,6)                  1.4466         estimate D2E/DX2                !
 ! R8    R(4,31)                 1.2297         estimate D2E/DX2                !
 ! R9    R(5,44)                 1.54           estimate D2E/DX2                !
 ! R10   R(5,48)                 1.54           estimate D2E/DX2                !
 ! R11   R(5,52)                 1.54           estimate D2E/DX2                !
 ! R12   R(6,32)                 1.54           estimate D2E/DX2                !
 ! R13   R(6,36)                 1.54           estimate D2E/DX2                !
 ! R14   R(6,40)                 1.54           estimate D2E/DX2                !
 ! R15   R(7,8)                  0.996          estimate D2E/DX2                !
 ! R16   R(7,47)                 1.5094         estimate D2E/DX2                !
 ! R17   R(8,9)                  1.407          estimate D2E/DX2                !
 ! R18   R(8,19)                 2.3444         estimate D2E/DX2                !
 ! R19   R(9,10)                 1.0959         estimate D2E/DX2                !
 ! R20   R(9,11)                 1.0955         estimate D2E/DX2                !
 ! R21   R(9,27)                 1.5103         estimate D2E/DX2                !
 ! R22   R(10,41)                1.5268         estimate D2E/DX2                !
 ! R23   R(12,14)                1.5191         estimate D2E/DX2                !
 ! R24   R(12,15)                1.0868         estimate D2E/DX2                !
 ! R25   R(12,16)                1.0925         estimate D2E/DX2                !
 ! R26   R(12,26)                1.5048         estimate D2E/DX2                !
 ! R27   R(13,17)                1.5062         estimate D2E/DX2                !
 ! R28   R(13,18)                1.0855         estimate D2E/DX2                !
 ! R29   R(13,19)                1.0896         estimate D2E/DX2                !
 ! R30   R(13,24)                1.4477         estimate D2E/DX2                !
 ! R31   R(14,17)                1.5166         estimate D2E/DX2                !
 ! R32   R(14,20)                1.0876         estimate D2E/DX2                !
 ! R33   R(14,21)                1.0903         estimate D2E/DX2                !
 ! R34   R(17,22)                1.0887         estimate D2E/DX2                !
 ! R35   R(17,23)                1.091          estimate D2E/DX2                !
 ! R36   R(24,26)                1.3287         estimate D2E/DX2                !
 ! R37   R(25,26)                1.209          estimate D2E/DX2                !
 ! R38   R(27,28)                1.089          estimate D2E/DX2                !
 ! R39   R(27,29)                1.089          estimate D2E/DX2                !
 ! R40   R(27,30)                1.0889         estimate D2E/DX2                !
 ! R41   R(32,33)                1.096          estimate D2E/DX2                !
 ! R42   R(32,34)                1.096          estimate D2E/DX2                !
 ! R43   R(32,35)                1.096          estimate D2E/DX2                !
 ! R44   R(36,37)                1.096          estimate D2E/DX2                !
 ! R45   R(36,38)                1.096          estimate D2E/DX2                !
 ! R46   R(36,39)                1.096          estimate D2E/DX2                !
 ! R47   R(40,41)                1.096          estimate D2E/DX2                !
 ! R48   R(40,42)                1.096          estimate D2E/DX2                !
 ! R49   R(40,43)                1.096          estimate D2E/DX2                !
 ! R50   R(44,45)                1.096          estimate D2E/DX2                !
 ! R51   R(44,46)                1.096          estimate D2E/DX2                !
 ! R52   R(44,47)                1.096          estimate D2E/DX2                !
 ! R53   R(48,49)                1.096          estimate D2E/DX2                !
 ! R54   R(48,50)                1.096          estimate D2E/DX2                !
 ! R55   R(48,51)                1.096          estimate D2E/DX2                !
 ! R56   R(52,53)                1.096          estimate D2E/DX2                !
 ! R57   R(52,54)                1.096          estimate D2E/DX2                !
 ! R58   R(52,55)                1.096          estimate D2E/DX2                !
 ! R59   R(56,57)                1.096          estimate D2E/DX2                !
 ! R60   R(56,58)                1.096          estimate D2E/DX2                !
 ! R61   R(56,59)                1.096          estimate D2E/DX2                !
 ! A1    A(3,1,4)              103.3662         estimate D2E/DX2                !
 ! A2    A(3,2,31)             101.9983         estimate D2E/DX2                !
 ! A3    A(3,2,56)             122.9436         estimate D2E/DX2                !
 ! A4    A(31,2,56)            135.0189         estimate D2E/DX2                !
 ! A5    A(1,3,2)              112.0131         estimate D2E/DX2                !
 ! A6    A(1,3,5)              124.047          estimate D2E/DX2                !
 ! A7    A(2,3,5)              123.9396         estimate D2E/DX2                !
 ! A8    A(1,4,6)              124.0655         estimate D2E/DX2                !
 ! A9    A(1,4,31)             118.0415         estimate D2E/DX2                !
 ! A10   A(6,4,31)             117.8394         estimate D2E/DX2                !
 ! A11   A(3,5,44)             108.3341         estimate D2E/DX2                !
 ! A12   A(3,5,48)             110.4623         estimate D2E/DX2                !
 ! A13   A(3,5,52)             110.5022         estimate D2E/DX2                !
 ! A14   A(44,5,48)            109.2183         estimate D2E/DX2                !
 ! A15   A(44,5,52)            109.2246         estimate D2E/DX2                !
 ! A16   A(48,5,52)            109.0737         estimate D2E/DX2                !
 ! A17   A(4,6,32)             110.4827         estimate D2E/DX2                !
 ! A18   A(4,6,36)             110.5071         estimate D2E/DX2                !
 ! A19   A(4,6,40)             108.3597         estimate D2E/DX2                !
 ! A20   A(32,6,36)            109.0823         estimate D2E/DX2                !
 ! A21   A(32,6,40)            109.1834         estimate D2E/DX2                !
 ! A22   A(36,6,40)            109.1988         estimate D2E/DX2                !
 ! A23   A(8,7,47)             100.5652         estimate D2E/DX2                !
 ! A24   A(7,8,9)              109.4222         estimate D2E/DX2                !
 ! A25   A(7,8,19)             115.6792         estimate D2E/DX2                !
 ! A26   A(9,8,19)             117.189          estimate D2E/DX2                !
 ! A27   A(8,9,10)             110.5819         estimate D2E/DX2                !
 ! A28   A(8,9,11)             110.6127         estimate D2E/DX2                !
 ! A29   A(8,9,27)             109.804          estimate D2E/DX2                !
 ! A30   A(10,9,11)            106.7694         estimate D2E/DX2                !
 ! A31   A(10,9,27)            109.4447         estimate D2E/DX2                !
 ! A32   A(11,9,27)            109.5744         estimate D2E/DX2                !
 ! A33   A(9,10,41)            111.7016         estimate D2E/DX2                !
 ! A34   A(14,12,15)           112.6925         estimate D2E/DX2                !
 ! A35   A(14,12,16)           109.9146         estimate D2E/DX2                !
 ! A36   A(14,12,26)           115.443          estimate D2E/DX2                !
 ! A37   A(15,12,16)           106.1872         estimate D2E/DX2                !
 ! A38   A(15,12,26)           107.0805         estimate D2E/DX2                !
 ! A39   A(16,12,26)           104.8504         estimate D2E/DX2                !
 ! A40   A(17,13,18)           112.1647         estimate D2E/DX2                !
 ! A41   A(17,13,19)           111.2997         estimate D2E/DX2                !
 ! A42   A(17,13,24)           113.0148         estimate D2E/DX2                !
 ! A43   A(18,13,19)           108.8849         estimate D2E/DX2                !
 ! A44   A(18,13,24)           104.5502         estimate D2E/DX2                !
 ! A45   A(19,13,24)           106.5375         estimate D2E/DX2                !
 ! A46   A(12,14,17)           108.9649         estimate D2E/DX2                !
 ! A47   A(12,14,20)           109.6984         estimate D2E/DX2                !
 ! A48   A(12,14,21)           110.1238         estimate D2E/DX2                !
 ! A49   A(17,14,20)           111.3979         estimate D2E/DX2                !
 ! A50   A(17,14,21)           109.5756         estimate D2E/DX2                !
 ! A51   A(20,14,21)           107.0659         estimate D2E/DX2                !
 ! A52   A(13,17,14)           109.2201         estimate D2E/DX2                !
 ! A53   A(13,17,22)           108.1027         estimate D2E/DX2                !
 ! A54   A(13,17,23)           110.4277         estimate D2E/DX2                !
 ! A55   A(14,17,22)           111.5087         estimate D2E/DX2                !
 ! A56   A(14,17,23)           110.2217         estimate D2E/DX2                !
 ! A57   A(22,17,23)           107.3281         estimate D2E/DX2                !
 ! A58   A(13,24,26)           123.8012         estimate D2E/DX2                !
 ! A59   A(12,26,24)           119.3856         estimate D2E/DX2                !
 ! A60   A(12,26,25)           122.0619         estimate D2E/DX2                !
 ! A61   A(24,26,25)           118.482          estimate D2E/DX2                !
 ! A62   A(9,27,28)            110.665          estimate D2E/DX2                !
 ! A63   A(9,27,29)            110.688          estimate D2E/DX2                !
 ! A64   A(9,27,30)            110.6524         estimate D2E/DX2                !
 ! A65   A(28,27,29)           108.2007         estimate D2E/DX2                !
 ! A66   A(28,27,30)           108.2981         estimate D2E/DX2                !
 ! A67   A(29,27,30)           108.2449         estimate D2E/DX2                !
 ! A68   A(2,31,4)             104.4408         estimate D2E/DX2                !
 ! A69   A(6,32,33)            111.3513         estimate D2E/DX2                !
 ! A70   A(6,32,34)            111.3513         estimate D2E/DX2                !
 ! A71   A(6,32,35)            111.3513         estimate D2E/DX2                !
 ! A72   A(33,32,34)           107.5275         estimate D2E/DX2                !
 ! A73   A(33,32,35)           107.5274         estimate D2E/DX2                !
 ! A74   A(34,32,35)           107.5274         estimate D2E/DX2                !
 ! A75   A(6,36,37)            111.3513         estimate D2E/DX2                !
 ! A76   A(6,36,38)            111.3513         estimate D2E/DX2                !
 ! A77   A(6,36,39)            111.3513         estimate D2E/DX2                !
 ! A78   A(37,36,38)           107.5275         estimate D2E/DX2                !
 ! A79   A(37,36,39)           107.5274         estimate D2E/DX2                !
 ! A80   A(38,36,39)           107.5274         estimate D2E/DX2                !
 ! A81   A(6,40,41)            111.3513         estimate D2E/DX2                !
 ! A82   A(6,40,42)            111.3513         estimate D2E/DX2                !
 ! A83   A(6,40,43)            111.3513         estimate D2E/DX2                !
 ! A84   A(41,40,42)           107.5275         estimate D2E/DX2                !
 ! A85   A(41,40,43)           107.5274         estimate D2E/DX2                !
 ! A86   A(42,40,43)           107.5274         estimate D2E/DX2                !
 ! A87   A(10,41,40)           123.7252         estimate D2E/DX2                !
 ! A88   A(5,44,45)            111.3513         estimate D2E/DX2                !
 ! A89   A(5,44,46)            111.3513         estimate D2E/DX2                !
 ! A90   A(5,44,47)            111.3513         estimate D2E/DX2                !
 ! A91   A(45,44,46)           107.5275         estimate D2E/DX2                !
 ! A92   A(45,44,47)           107.5274         estimate D2E/DX2                !
 ! A93   A(46,44,47)           107.5274         estimate D2E/DX2                !
 ! A94   A(7,47,44)            151.1579         estimate D2E/DX2                !
 ! A95   A(5,48,49)            111.3513         estimate D2E/DX2                !
 ! A96   A(5,48,50)            111.3513         estimate D2E/DX2                !
 ! A97   A(5,48,51)            111.3513         estimate D2E/DX2                !
 ! A98   A(49,48,50)           107.5275         estimate D2E/DX2                !
 ! A99   A(49,48,51)           107.5274         estimate D2E/DX2                !
 ! A100  A(50,48,51)           107.5274         estimate D2E/DX2                !
 ! A101  A(5,52,53)            111.3513         estimate D2E/DX2                !
 ! A102  A(5,52,54)            111.3513         estimate D2E/DX2                !
 ! A103  A(5,52,55)            111.3513         estimate D2E/DX2                !
 ! A104  A(53,52,54)           107.5275         estimate D2E/DX2                !
 ! A105  A(53,52,55)           107.5274         estimate D2E/DX2                !
 ! A106  A(54,52,55)           107.5274         estimate D2E/DX2                !
 ! A107  A(2,56,57)            111.3513         estimate D2E/DX2                !
 ! A108  A(2,56,58)            111.3513         estimate D2E/DX2                !
 ! A109  A(2,56,59)            111.3513         estimate D2E/DX2                !
 ! A110  A(57,56,58)           107.5275         estimate D2E/DX2                !
 ! A111  A(57,56,59)           107.5274         estimate D2E/DX2                !
 ! A112  A(58,56,59)           107.5274         estimate D2E/DX2                !
 ! A113  L(8,19,13,21,-1)      182.1403         estimate D2E/DX2                !
 ! A114  L(8,19,13,21,-2)      182.756          estimate D2E/DX2                !
 ! D1    D(4,1,3,2)              0.0486         estimate D2E/DX2                !
 ! D2    D(4,1,3,5)            179.8636         estimate D2E/DX2                !
 ! D3    D(3,1,4,6)            179.9661         estimate D2E/DX2                !
 ! D4    D(3,1,4,31)             2.6891         estimate D2E/DX2                !
 ! D5    D(31,2,3,1)            -2.0283         estimate D2E/DX2                !
 ! D6    D(31,2,3,5)           178.1565         estimate D2E/DX2                !
 ! D7    D(56,2,3,1)           179.9376         estimate D2E/DX2                !
 ! D8    D(56,2,3,5)             0.1224         estimate D2E/DX2                !
 ! D9    D(3,2,31,4)             3.4189         estimate D2E/DX2                !
 ! D10   D(56,2,31,4)         -178.9152         estimate D2E/DX2                !
 ! D11   D(3,2,56,57)         -151.0865         estimate D2E/DX2                !
 ! D12   D(3,2,56,58)          -31.0864         estimate D2E/DX2                !
 ! D13   D(3,2,56,59)           88.9135         estimate D2E/DX2                !
 ! D14   D(31,2,56,57)          31.6344         estimate D2E/DX2                !
 ! D15   D(31,2,56,58)         151.6345         estimate D2E/DX2                !
 ! D16   D(31,2,56,59)         -88.3656         estimate D2E/DX2                !
 ! D17   D(1,3,5,44)             1.1462         estimate D2E/DX2                !
 ! D18   D(1,3,5,48)           120.7351         estimate D2E/DX2                !
 ! D19   D(1,3,5,52)          -118.4742         estimate D2E/DX2                !
 ! D20   D(2,3,5,44)          -179.0606         estimate D2E/DX2                !
 ! D21   D(2,3,5,48)           -59.4716         estimate D2E/DX2                !
 ! D22   D(2,3,5,52)            61.3191         estimate D2E/DX2                !
 ! D23   D(1,4,6,32)          -119.9054         estimate D2E/DX2                !
 ! D24   D(1,4,6,36)           119.2763         estimate D2E/DX2                !
 ! D25   D(1,4,6,40)            -0.3313         estimate D2E/DX2                !
 ! D26   D(31,4,6,32)           57.3767         estimate D2E/DX2                !
 ! D27   D(31,4,6,36)          -63.4416         estimate D2E/DX2                !
 ! D28   D(31,4,6,40)          176.9508         estimate D2E/DX2                !
 ! D29   D(1,4,31,2)            -3.8993         estimate D2E/DX2                !
 ! D30   D(6,4,31,2)           178.6516         estimate D2E/DX2                !
 ! D31   D(3,5,44,45)          133.9543         estimate D2E/DX2                !
 ! D32   D(3,5,44,46)         -106.0457         estimate D2E/DX2                !
 ! D33   D(3,5,44,47)           13.9543         estimate D2E/DX2                !
 ! D34   D(48,5,44,45)          13.5872         estimate D2E/DX2                !
 ! D35   D(48,5,44,46)         133.5872         estimate D2E/DX2                !
 ! D36   D(48,5,44,47)        -106.4128         estimate D2E/DX2                !
 ! D37   D(52,5,44,45)        -105.6266         estimate D2E/DX2                !
 ! D38   D(52,5,44,46)          14.3734         estimate D2E/DX2                !
 ! D39   D(52,5,44,47)         134.3734         estimate D2E/DX2                !
 ! D40   D(3,5,48,49)           43.3696         estimate D2E/DX2                !
 ! D41   D(3,5,48,50)          163.3696         estimate D2E/DX2                !
 ! D42   D(3,5,48,51)          -76.6304         estimate D2E/DX2                !
 ! D43   D(44,5,48,49)         162.4233         estimate D2E/DX2                !
 ! D44   D(44,5,48,50)         -77.5767         estimate D2E/DX2                !
 ! D45   D(44,5,48,51)          42.4233         estimate D2E/DX2                !
 ! D46   D(52,5,48,49)         -78.2693         estimate D2E/DX2                !
 ! D47   D(52,5,48,50)          41.7307         estimate D2E/DX2                !
 ! D48   D(52,5,48,51)         161.7307         estimate D2E/DX2                !
 ! D49   D(3,5,52,53)          104.8684         estimate D2E/DX2                !
 ! D50   D(3,5,52,54)         -135.1315         estimate D2E/DX2                !
 ! D51   D(3,5,52,55)          -15.1315         estimate D2E/DX2                !
 ! D52   D(44,5,52,53)         -14.2134         estimate D2E/DX2                !
 ! D53   D(44,5,52,54)         105.7867         estimate D2E/DX2                !
 ! D54   D(44,5,52,55)        -134.2133         estimate D2E/DX2                !
 ! D55   D(48,5,52,53)        -133.5168         estimate D2E/DX2                !
 ! D56   D(48,5,52,54)         -13.5168         estimate D2E/DX2                !
 ! D57   D(48,5,52,55)         106.4832         estimate D2E/DX2                !
 ! D58   D(4,6,32,33)         -125.6697         estimate D2E/DX2                !
 ! D59   D(4,6,32,34)           -5.6696         estimate D2E/DX2                !
 ! D60   D(4,6,32,35)          114.3304         estimate D2E/DX2                !
 ! D61   D(36,6,32,33)          -4.0061         estimate D2E/DX2                !
 ! D62   D(36,6,32,34)         115.994          estimate D2E/DX2                !
 ! D63   D(36,6,32,35)        -124.006          estimate D2E/DX2                !
 ! D64   D(40,6,32,33)         115.2545         estimate D2E/DX2                !
 ! D65   D(40,6,32,34)        -124.7455         estimate D2E/DX2                !
 ! D66   D(40,6,32,35)          -4.7455         estimate D2E/DX2                !
 ! D67   D(4,6,36,37)         -108.3945         estimate D2E/DX2                !
 ! D68   D(4,6,36,38)           11.6056         estimate D2E/DX2                !
 ! D69   D(4,6,36,39)          131.6055         estimate D2E/DX2                !
 ! D70   D(32,6,36,37)         129.9567         estimate D2E/DX2                !
 ! D71   D(32,6,36,38)        -110.0433         estimate D2E/DX2                !
 ! D72   D(32,6,36,39)           9.9567         estimate D2E/DX2                !
 ! D73   D(40,6,36,37)          10.7058         estimate D2E/DX2                !
 ! D74   D(40,6,36,38)         130.7058         estimate D2E/DX2                !
 ! D75   D(40,6,36,39)        -109.2942         estimate D2E/DX2                !
 ! D76   D(4,6,40,41)          -45.1494         estimate D2E/DX2                !
 ! D77   D(4,6,40,42)           74.8507         estimate D2E/DX2                !
 ! D78   D(4,6,40,43)         -165.1493         estimate D2E/DX2                !
 ! D79   D(32,6,40,41)          75.2372         estimate D2E/DX2                !
 ! D80   D(32,6,40,42)        -164.7628         estimate D2E/DX2                !
 ! D81   D(32,6,40,43)         -44.7628         estimate D2E/DX2                !
 ! D82   D(36,6,40,41)        -165.5746         estimate D2E/DX2                !
 ! D83   D(36,6,40,42)         -45.5745         estimate D2E/DX2                !
 ! D84   D(36,6,40,43)          74.4255         estimate D2E/DX2                !
 ! D85   D(47,7,8,9)          -107.1555         estimate D2E/DX2                !
 ! D86   D(47,7,8,19)          117.843          estimate D2E/DX2                !
 ! D87   D(8,7,47,44)         -112.0012         estimate D2E/DX2                !
 ! D88   D(7,8,9,10)           -58.8955         estimate D2E/DX2                !
 ! D89   D(7,8,9,11)            59.1723         estimate D2E/DX2                !
 ! D90   D(7,8,9,27)          -179.7707         estimate D2E/DX2                !
 ! D91   D(19,8,9,10)           75.3455         estimate D2E/DX2                !
 ! D92   D(19,8,9,11)         -166.5868         estimate D2E/DX2                !
 ! D93   D(19,8,9,27)          -45.5298         estimate D2E/DX2                !
 ! D94   D(7,8,13,17)          -87.4061         estimate D2E/DX2                !
 ! D95   D(7,8,13,18)           37.7963         estimate D2E/DX2                !
 ! D96   D(7,8,13,24)          148.8635         estimate D2E/DX2                !
 ! D97   D(9,8,13,17)          141.8538         estimate D2E/DX2                !
 ! D98   D(9,8,13,18)          -92.9437         estimate D2E/DX2                !
 ! D99   D(9,8,13,24)           18.1235         estimate D2E/DX2                !
 ! D100  D(8,9,10,41)           42.8209         estimate D2E/DX2                !
 ! D101  D(11,9,10,41)         -77.571          estimate D2E/DX2                !
 ! D102  D(27,9,10,41)         163.9095         estimate D2E/DX2                !
 ! D103  D(8,9,27,28)          179.515          estimate D2E/DX2                !
 ! D104  D(8,9,27,29)          -60.5337         estimate D2E/DX2                !
 ! D105  D(8,9,27,30)           59.4648         estimate D2E/DX2                !
 ! D106  D(10,9,27,28)          57.9562         estimate D2E/DX2                !
 ! D107  D(10,9,27,29)         177.9075         estimate D2E/DX2                !
 ! D108  D(10,9,27,30)         -62.0939         estimate D2E/DX2                !
 ! D109  D(11,9,27,28)         -58.8049         estimate D2E/DX2                !
 ! D110  D(11,9,27,29)          61.1464         estimate D2E/DX2                !
 ! D111  D(11,9,27,30)        -178.8551         estimate D2E/DX2                !
 ! D112  D(9,10,41,40)        -130.5616         estimate D2E/DX2                !
 ! D113  D(15,12,14,17)        166.8781         estimate D2E/DX2                !
 ! D114  D(15,12,14,20)        -70.9275         estimate D2E/DX2                !
 ! D115  D(15,12,14,21)         46.6639         estimate D2E/DX2                !
 ! D116  D(16,12,14,17)        -74.9008         estimate D2E/DX2                !
 ! D117  D(16,12,14,20)         47.2936         estimate D2E/DX2                !
 ! D118  D(16,12,14,21)        164.8851         estimate D2E/DX2                !
 ! D119  D(26,12,14,17)         43.4086         estimate D2E/DX2                !
 ! D120  D(26,12,14,20)        165.603          estimate D2E/DX2                !
 ! D121  D(26,12,14,21)        -76.8055         estimate D2E/DX2                !
 ! D122  D(14,12,26,24)        -18.6059         estimate D2E/DX2                !
 ! D123  D(14,12,26,25)        164.4967         estimate D2E/DX2                !
 ! D124  D(15,12,26,24)       -144.9844         estimate D2E/DX2                !
 ! D125  D(15,12,26,25)         38.1181         estimate D2E/DX2                !
 ! D126  D(16,12,26,24)        102.4841         estimate D2E/DX2                !
 ! D127  D(16,12,26,25)        -74.4133         estimate D2E/DX2                !
 ! D128  D(18,13,17,14)        170.1815         estimate D2E/DX2                !
 ! D129  D(18,13,17,22)        -68.3202         estimate D2E/DX2                !
 ! D130  D(18,13,17,23)         48.8178         estimate D2E/DX2                !
 ! D131  D(19,13,17,14)        -67.5462         estimate D2E/DX2                !
 ! D132  D(19,13,17,22)         53.9521         estimate D2E/DX2                !
 ! D133  D(19,13,17,23)        171.0901         estimate D2E/DX2                !
 ! D134  D(24,13,17,14)         52.2914         estimate D2E/DX2                !
 ! D135  D(24,13,17,22)        173.7897         estimate D2E/DX2                !
 ! D136  D(24,13,17,23)        -69.0723         estimate D2E/DX2                !
 ! D137  D(17,13,24,26)        -27.8554         estimate D2E/DX2                !
 ! D138  D(18,13,24,26)       -150.1133         estimate D2E/DX2                !
 ! D139  D(19,13,24,26)         94.6797         estimate D2E/DX2                !
 ! D140  D(12,14,17,13)        -59.8343         estimate D2E/DX2                !
 ! D141  D(12,14,17,22)       -179.2462         estimate D2E/DX2                !
 ! D142  D(12,14,17,23)         61.6542         estimate D2E/DX2                !
 ! D143  D(20,14,17,13)        179.0037         estimate D2E/DX2                !
 ! D144  D(20,14,17,22)         59.5918         estimate D2E/DX2                !
 ! D145  D(20,14,17,23)        -59.5078         estimate D2E/DX2                !
 ! D146  D(21,14,17,13)         60.7174         estimate D2E/DX2                !
 ! D147  D(21,14,17,22)        -58.6945         estimate D2E/DX2                !
 ! D148  D(21,14,17,23)       -177.7941         estimate D2E/DX2                !
 ! D149  D(13,24,26,12)         10.3274         estimate D2E/DX2                !
 ! D150  D(13,24,26,25)       -172.6639         estimate D2E/DX2                !
 ! D151  D(6,40,41,10)        -173.9419         estimate D2E/DX2                !
 ! D152  D(42,40,41,10)         63.8219         estimate D2E/DX2                !
 ! D153  D(43,40,41,10)        -51.7058         estimate D2E/DX2                !
 ! D154  D(5,44,47,7)          -72.4264         estimate D2E/DX2                !
 ! D155  D(45,44,47,7)         165.3375         estimate D2E/DX2                !
 ! D156  D(46,44,47,7)          49.8097         estimate D2E/DX2                !
 --------------------------------------------------------------------------------
 Trust Radius=3.00D-01 FncErr=1.00D-07 GrdErr=1.00D-06
 Number of steps in this run=    341 maximum allowed number of steps=    354.
 GradGradGradGradGradGradGradGradGradGradGradGradGradGradGradGradGradGrad

 Leave Link  103 at Thu Oct  7 08:12:13 2021, MaxMem=  6710886400 cpu:         0.2
 (Enter /usr/local/gqt/g09/l202.exe)
 Stoichiometry    C18H35N3O3
 Framework group  C1[X(C18H35N3O3)]
 Deg. of freedom   171
 Full point group                 C1      NOp   1
 Largest Abelian subgroup         C1      NOp   1
 Largest concise Abelian subgroup C1      NOp   1
                         Standard orientation:                         
 ---------------------------------------------------------------------
 Center     Atomic      Atomic             Coordinates (Angstroms)
 Number     Number       Type             X           Y           Z
 ---------------------------------------------------------------------
      1          6           0       -1.875535    0.166389    0.141767
      2          6           0       -3.955020   -0.424167   -0.534044
      3          7           0       -2.757304   -0.850163   -0.001035
      4          7           0       -2.559128    1.240230   -0.317114
      5          6           0       -2.476093   -2.222751    0.358703
      6          6           0       -2.022299    2.582680   -0.364709
      7          1           0       -0.137048    0.057836    0.756131
      8          8           0        0.802561   -0.008080    1.079958
      9          6           0        0.965069    0.809004    2.213782
     10          1           0        0.726545    1.851547    1.974729
     11          1           0        0.279347    0.502754    3.011344
     12          6           0        5.508315   -1.308119   -0.411743
     13          6           0        3.245194    0.230635   -1.319924
     14          6           0        4.248986   -1.985102   -0.925067
     15          1           0        5.902825   -1.780399    0.483991
     16          1           0        6.298454   -1.372938   -1.163435
     17          6           0        3.593499   -1.088609   -1.957932
     18          1           0        2.930715    0.968749   -2.051038
     19          1           0        2.458472    0.114597   -0.575088
     20          1           0        4.500076   -2.956464   -1.344882
     21          1           0        3.555940   -2.161676   -0.102086
     22          1           0        2.676529   -1.529743   -2.345004
     23          1           0        4.263849   -0.936642   -2.805200
     24          8           0        4.367090    0.845239   -0.642009
     25          8           0        6.195377    0.758338    0.545120
     26          6           0        5.377420    0.161461   -0.115502
     27          6           0        2.389118    0.719851    2.708892
     28          1           0        2.532790    1.354332    3.582193
     29          1           0        2.636189   -0.303528    2.987597
     30          1           0        3.085406    1.040082    1.935386
     31          7           0       -3.725111    1.075132   -0.671179
     32          6           0       -2.877097    3.535544    0.491428
     33          1           0       -3.214090    4.400954   -0.090474
     34          1           0       -3.769286    3.031209    0.879697
     35          1           0       -2.312359    3.915141    1.350547
     36          6           0       -1.990927    3.100069   -1.814856
     37          1           0       -0.965394    3.152113   -2.197845
     38          1           0       -2.560493    2.445573   -2.484435
     39          1           0       -2.422509    4.104696   -1.889502
     40          6           0       -0.587151    2.551255    0.192931
     41          1           0       -0.529830    1.960185    1.114049
     42          1           0        0.111044    2.109154   -0.526915
     43          1           0       -0.227109    3.560001    0.425119
     44          6           0       -1.050713   -2.289449    0.937877
     45          1           0       -1.021509   -2.883176    1.858607
     46          1           0       -0.352490   -2.747023    0.227794
     47          1           0       -0.670176   -1.289991    1.177430
     48          6           0       -3.477655   -2.717501    1.418748
     49          1           0       -4.500069   -2.404266    1.178619
     50          1           0       -3.475626   -3.811136    1.489922
     51          1           0       -3.235795   -2.321674    2.411690
     52          6           0       -2.563281   -3.133680   -0.879929
     53          1           0       -1.567188   -3.427250   -1.230248
     54          1           0       -3.120244   -4.051936   -0.661514
     55          1           0       -3.070183   -2.629927   -1.710828
     56          6           0       -5.136532   -1.374233   -0.804236
     57          1           0       -5.751386   -1.018976   -1.639014
     58          1           0       -4.788327   -2.382337   -1.056401
     59          1           0       -5.788285   -1.459883    0.072685
 ---------------------------------------------------------------------
 Rotational constants (GHZ):      0.3106527      0.1120853      0.0972080
 Leave Link  202 at Thu Oct  7 08:12:13 2021, MaxMem=  6710886400 cpu:         0.0
 (Enter /usr/local/gqt/g09/l301.exe)
 Standard basis: 6-311+G(d,p) (5D, 7F)
 Ernie: Thresh=  0.10000D-02 Tol=  0.10000D-05 Strict=F.
 There are   762 symmetry adapted cartesian basis functions of A   symmetry.
 There are   738 symmetry adapted basis functions of A   symmetry.
   738 basis functions,  1144 primitive gaussians,   762 cartesian basis functions
    94 alpha electrons       94 beta electrons
       nuclear repulsion energy      2254.3912891277 Hartrees.
 IExCor= 5547 DFT=T Ex+Corr=N12SX ExCW=0 ScaHFX=  0.250000
 ScaDFX=  1.000000  1.000000  1.000000  1.000000 ScalE2=  1.000000  1.000000
 IRadAn=      0 IRanWt=     -1 IRanGd=            0 ICorTp=0 IEmpDi=  4
  HFx wShort=  0.110000 wLong=  0.000000 cFull=  0.000000 cShort=  1.000000 cLong=  0.000000
  DFx wShort=  0.110000 wLong=  0.000000 cFull=  0.000000 cShort=  1.000000 cLong=  0.000000
 NAtoms=   59 NActive=   59 NUniq=   59 SFac= 1.00D+00 NAtFMM=   60 NAOKFM=F Big=F
 Integral buffers will be    131072 words long.
 Raffenetti 2 integral format.
 Two-electron integral symmetry is turned on.
 ------------------------------------------------------------------------------
 Polarizable Continuum Model (PCM)
 =================================
 Model                : PCM (using non-symmetric T matrix).
 Atomic radii         : UFF (Universal Force Field).
 Polarization charges : Total charges.
 Charge compensation  : None.
 Solution method      : On-the-fly selection.
 Cavity type          : Scaled VdW (van der Waals Surface) (Alpha=1.100).
 Cavity algorithm     : GePol (No added spheres)
                        Default sphere list used, NSphG=   59.
                        Lebedev-Laikov grids with approx.  5.0 points / Ang**2.
                        Smoothing algorithm: Karplus/York (Gamma=1.0000).
                        Polarization charges: spherical gaussians, with
                                              point-specific exponents (IZeta= 3).
                        Self-potential: point-specific (ISelfS= 7).
                        Self-field    : sphere-specific E.n sum rule (ISelfD= 2).
 1st derivatives      : Analytical E(r).r(x)/FMM algorithm (CHGder, D1EAlg=3).
                        Cavity 1st derivative terms included.
 Solvent              : Ethanol, Eps=  24.852000 Eps(inf)=   1.852593
 ------------------------------------------------------------------------------
 GePol: Number of generator spheres                  =      59
 GePol: Total number of spheres                      =      59
 GePol: Number of exposed spheres                    =      59 (100.00%)
 GePol: Number of points                             =    3839
 GePol: Average weight of points                     =       0.13
 GePol: Minimum weight of points                     =   0.28D-10
 GePol: Maximum weight of points                     =    0.20577
 GePol: Number of points with low weight             =     285
 GePol: Fraction of low-weight points (<1% of avg)   =       7.42%
 GePol: Cavity surface area                          =    489.931 Ang**2
 GePol: Cavity volume                                =    533.802 Ang**3
 Leave Link  301 at Thu Oct  7 08:12:13 2021, MaxMem=  6710886400 cpu:         0.8
 (Enter /usr/local/gqt/g09/l302.exe)
 NPDir=0 NMtPBC=     1 NCelOv=     1 NCel=       1 NClECP=     1 NCelD=      1
         NCelK=      1 NCelE2=     1 NClLst=     1 CellRange=     0.0.
 One-electron integrals computed using PRISM.
 NBasis=   738 RedAO= T EigKep=  4.26D-06  NBF=   738
 NBsUse=   738 1.00D-06 EigRej= -1.00D+00 NBFU=   738
 Precomputing XC quadrature grid using
 IXCGrd= 4 IRadAn=           0 IRanWt=          -1 IRanGd=           0 AccXCQ= 0.00D+00.
 Generated NRdTot=       0 NPtTot=           0 NUsed=           0 NTot=          32
 NSgBfM=   741   742   743   744   750 MxSgAt=    59 MxSgA2=    59.
 Leave Link  302 at Thu Oct  7 08:12:15 2021, MaxMem=  6710886400 cpu:        25.8
 (Enter /usr/local/gqt/g09/l303.exe)
 DipDrv:  MaxL=1.
 Leave Link  303 at Thu Oct  7 08:12:15 2021, MaxMem=  6710886400 cpu:         2.0
 (Enter /usr/local/gqt/g09/l401.exe)
 ExpMin= 4.38D-02 ExpMax= 8.59D+03 ExpMxC= 1.30D+03 IAcc=2 IRadAn=         4 AccDes= 0.00D+00
 Harris functional with IExCor= 5547 and IRadAn=       4 diagonalized for initial guess.
 HarFok:  IExCor= 5547 AccDes= 0.00D+00 IRadAn=         4 IDoV= 1 UseB2=F ITyADJ=14
 ICtDFT=  3500011 ScaDFX=  1.000000  1.000000  1.000000  1.000000
 FoFCou: FMM=F IPFlag=           0 FMFlag=      100000 FMFlg1=           0
         NFxFlg=           0 DoJE=T BraDBF=F KetDBF=T FulRan=T
         wScrn=  0.000000 ICntrl=     500 IOpCl=  0 I1Cent=   200000004 NGrid=           0
         NMat0=    1 NMatS0=      1 NMatT0=    0 NMatD0=    1 NMtDS0=    0 NMtDT0=    0
 Petite list used in FoFCou.
 Harris En= -1062.52324118375    
 JPrj=0 DoOrth=F DoCkMO=F.
 Leave Link  401 at Thu Oct  7 08:12:19 2021, MaxMem=  6710886400 cpu:        68.3
 (Enter /usr/local/gqt/g09/l502.exe)
 Closed shell SCF:
 Using DIIS extrapolation, IDIIS=  1040.
 Integral symmetry usage will be decided dynamically.
 IVT=     1778386 IEndB=     1778386 NGot=  6710886400 MDV=  6709706061
 LenX=  6709706061 LenY=  6709124655
 Requested convergence on RMS density matrix=1.00D-08 within 128 cycles.
 Requested convergence on MAX density matrix=1.00D-06.
 Requested convergence on             energy=1.00D-06.
 No special actions if energy rises.
 Fock matrices will be formed incrementally for  20 cycles.

 Cycle   1  Pass 1  IDiag  1:
 FoFJK:  IHMeth= 1 ICntrl=       0 DoSepK=T KAlg= 0 I1Cent=   0 FoldK=F
 IRaf=         1 NMat=   1 IRICut=       1 DoRegI=T DoRafI=F ISym2E= 0.
 FoFCou: FMM=F IPFlag=           0 FMFlag=      100000 FMFlg1=           0
         NFxFlg=           0 DoJE=T BraDBF=F KetDBF=F FulRan=T
         wScrn=  0.000000 ICntrl=     500 IOpCl=  0 I1Cent=           0 NGrid=           0
         NMat0=    1 NMatS0=      1 NMatT0=    0 NMatD0=    1 NMtDS0=    0 NMtDT0=    0
 Symmetry not used in FoFCou.
 Inv3:  Mode=1 IEnd=    44213763.
 Iteration    1 A*A^-1 deviation from unit magnitude is 6.66D-15 for   3833.
 Iteration    1 A*A^-1 deviation from orthogonality  is 4.05D-15 for   3833    698.
 Iteration    1 A^-1*A deviation from unit magnitude is 6.66D-15 for   3833.
 Iteration    1 A^-1*A deviation from orthogonality  is 1.71D-08 for   3475   3443.
 Iteration    2 A*A^-1 deviation from unit magnitude is 4.22D-15 for    973.
 Iteration    2 A*A^-1 deviation from orthogonality  is 4.50D-15 for   3444    270.
 Iteration    2 A^-1*A deviation from unit magnitude is 9.99D-16 for   1683.
 Iteration    2 A^-1*A deviation from orthogonality  is 9.48D-16 for   3812    338.
 E= -1096.06594086630    
 DIIS: error= 5.95D-02 at cycle   1 NSaved=   1.
 NSaved= 1 IEnMin= 1 EnMin= -1096.06594086630     IErMin= 1 ErrMin= 5.95D-02
 ErrMax= 5.95D-02  0.00D+00 EMaxC= 1.00D-01 BMatC= 2.77D+00 BMatP= 2.77D+00
 IDIUse=3 WtCom= 4.05D-01 WtEn= 5.95D-01
 Coeff-Com:  0.100D+01
 Coeff-En:   0.100D+01
 Coeff:      0.100D+01
 Gap=     0.301 Goal=   None    Shift=    0.000
 GapD=    0.301 DampG=1.000 DampE=0.500 DampFc=0.5000 IDamp=-1.
 Damping current iteration by 5.00D-01
 RMSDP=7.67D-03 MaxDP=1.90D+00              OVMax= 2.19D-01

 Cycle   2  Pass 1  IDiag  1:
 RMSU=  2.73D-03    CP:  8.61D-01
 E= -1096.25330744666     Delta-E=       -0.187366580363 Rises=F Damp=T
 DIIS: error= 2.64D-02 at cycle   2 NSaved=   2.
 NSaved= 2 IEnMin= 2 EnMin= -1096.25330744666     IErMin= 2 ErrMin= 2.64D-02
 ErrMax= 2.64D-02  0.00D+00 EMaxC= 1.00D-01 BMatC= 5.61D-01 BMatP= 2.77D+00
 IDIUse=3 WtCom= 7.36D-01 WtEn= 2.64D-01
 Coeff-Com: -0.414D+00 0.141D+01
 Coeff-En:   0.146D+00 0.854D+00
 Coeff:     -0.267D+00 0.127D+01
 Gap=     0.268 Goal=   None    Shift=    0.000
 RMSDP=3.90D-03 MaxDP=4.54D-01 DE=-1.87D-01 OVMax= 3.44D-01

 Cycle   3  Pass 1  IDiag  1:
 RMSU=  2.93D-03    CP:  7.68D-01  3.31D-01
 E= -1096.20252760426     Delta-E=        0.050779842400 Rises=F Damp=F
 DIIS: error= 3.11D-02 at cycle   3 NSaved=   3.
 NSaved= 3 IEnMin= 2 EnMin= -1096.25330744666     IErMin= 2 ErrMin= 2.64D-02
 ErrMax= 3.11D-02  0.00D+00 EMaxC= 1.00D-01 BMatC= 4.19D-01 BMatP= 5.61D-01
 IDIUse=3 WtCom= 6.89D-01 WtEn= 3.11D-01
 Coeff-Com: -0.364D+00 0.841D+00 0.523D+00
 Coeff-En:   0.000D+00 0.570D+00 0.430D+00
 Coeff:     -0.251D+00 0.757D+00 0.494D+00
 Gap=     0.205 Goal=   None    Shift=    0.000
 RMSDP=3.40D-03 MaxDP=7.39D-01 DE= 5.08D-02 OVMax= 2.60D-01

 Cycle   4  Pass 1  IDiag  1:
 RMSU=  1.32D-03    CP:  7.20D-01  1.19D+00  3.65D-01
 E= -1096.49465214889     Delta-E=       -0.292124544628 Rises=F Damp=F
 DIIS: error= 1.20D-02 at cycle   4 NSaved=   4.
 NSaved= 4 IEnMin= 4 EnMin= -1096.49465214889     IErMin= 4 ErrMin= 1.20D-02
 ErrMax= 1.20D-02  0.00D+00 EMaxC= 1.00D-01 BMatC= 6.27D-02 BMatP= 4.19D-01
 IDIUse=3 WtCom= 8.80D-01 WtEn= 1.20D-01
 Coeff-Com: -0.190D+00 0.429D+00 0.366D+00 0.394D+00
 Coeff-En:   0.000D+00 0.000D+00 0.137D+00 0.863D+00
 Coeff:     -0.167D+00 0.378D+00 0.339D+00 0.451D+00
 Gap=     0.193 Goal=   None    Shift=    0.000
 RMSDP=9.86D-04 MaxDP=9.35D-02 DE=-2.92D-01 OVMax= 1.16D-01

 Cycle   5  Pass 1  IDiag  1:
 RMSU=  4.94D-04    CP:  7.22D-01  1.08D+00  5.33D-01  5.27D-01
 E= -1096.54211794004     Delta-E=       -0.047465791151 Rises=F Damp=F
 DIIS: error= 3.11D-03 at cycle   5 NSaved=   5.
 NSaved= 5 IEnMin= 5 EnMin= -1096.54211794004     IErMin= 5 ErrMin= 3.11D-03
 ErrMax= 3.11D-03  0.00D+00 EMaxC= 1.00D-01 BMatC= 5.65D-03 BMatP= 6.27D-02
 IDIUse=3 WtCom= 9.69D-01 WtEn= 3.11D-02
 Coeff-Com: -0.698D-01 0.159D+00 0.159D+00 0.292D+00 0.460D+00
 Coeff-En:   0.000D+00 0.000D+00 0.000D+00 0.961D-01 0.904D+00
 Coeff:     -0.676D-01 0.154D+00 0.154D+00 0.286D+00 0.474D+00
 Gap=     0.195 Goal=   None    Shift=    0.000
 RMSDP=3.91D-04 MaxDP=3.58D-02 DE=-4.75D-02 OVMax= 3.60D-02

 Cycle   6  Pass 1  IDiag  1:
 RMSU=  1.89D-04    CP:  7.22D-01  1.11D+00  4.82D-01  6.93D-01  6.14D-01
 E= -1096.54652786420     Delta-E=       -0.004409924161 Rises=F Damp=F
 DIIS: error= 9.89D-04 at cycle   6 NSaved=   6.
 NSaved= 6 IEnMin= 6 EnMin= -1096.54652786420     IErMin= 6 ErrMin= 9.89D-04
 ErrMax= 9.89D-04  0.00D+00 EMaxC= 1.00D-01 BMatC= 6.30D-04 BMatP= 5.65D-03
 IDIUse=3 WtCom= 9.90D-01 WtEn= 9.89D-03
 Coeff-Com:  0.700D-04 0.214D-03 0.155D-01 0.905D-01 0.324D+00 0.570D+00
 Coeff-En:   0.000D+00 0.000D+00 0.000D+00 0.000D+00 0.115D+00 0.885D+00
 Coeff:      0.693D-04 0.212D-03 0.154D-01 0.896D-01 0.322D+00 0.573D+00
 Gap=     0.195 Goal=   None    Shift=    0.000
 RMSDP=1.26D-04 MaxDP=1.30D-02 DE=-4.41D-03 OVMax= 1.16D-02

 Cycle   7  Pass 1  IDiag  1:
 RMSU=  5.57D-05    CP:  7.22D-01  1.09D+00  5.03D-01  6.65D-01  6.94D-01
                    CP:  7.11D-01
 E= -1096.54701339314     Delta-E=       -0.000485528946 Rises=F Damp=F
 DIIS: error= 5.00D-04 at cycle   7 NSaved=   7.
 NSaved= 7 IEnMin= 7 EnMin= -1096.54701339314     IErMin= 7 ErrMin= 5.00D-04
 ErrMax= 5.00D-04  0.00D+00 EMaxC= 1.00D-01 BMatC= 9.38D-05 BMatP= 6.30D-04
 IDIUse=3 WtCom= 9.95D-01 WtEn= 5.00D-03
 Coeff-Com:  0.425D-02-0.935D-02 0.809D-04 0.414D-01 0.183D+00 0.388D+00
 Coeff-Com:  0.393D+00
 Coeff-En:   0.000D+00 0.000D+00 0.000D+00 0.000D+00 0.000D+00 0.916D-01
 Coeff-En:   0.908D+00
 Coeff:      0.423D-02-0.930D-02 0.805D-04 0.411D-01 0.182D+00 0.387D+00
 Coeff:      0.395D+00
 Gap=     0.195 Goal=   None    Shift=    0.000
 RMSDP=3.53D-05 MaxDP=5.84D-03 DE=-4.86D-04 OVMax= 2.63D-03

 Cycle   8  Pass 1  IDiag  1:
 RMSU=  1.95D-05    CP:  7.22D-01  1.10D+00  4.99D-01  6.73D-01  6.92D-01
                    CP:  7.28D-01  7.15D-01
 E= -1096.54708609628     Delta-E=       -0.000072703132 Rises=F Damp=F
 DIIS: error= 1.16D-04 at cycle   8 NSaved=   8.
 NSaved= 8 IEnMin= 8 EnMin= -1096.54708609628     IErMin= 8 ErrMin= 1.16D-04
 ErrMax= 1.16D-04  0.00D+00 EMaxC= 1.00D-01 BMatC= 3.36D-06 BMatP= 9.38D-05
 IDIUse=3 WtCom= 9.99D-01 WtEn= 1.16D-03
 Coeff-Com:  0.183D-02-0.392D-02-0.196D-02 0.878D-02 0.427D-01 0.109D+00
 Coeff-Com:  0.188D+00 0.656D+00
 Coeff-En:   0.000D+00 0.000D+00 0.000D+00 0.000D+00 0.000D+00 0.000D+00
 Coeff-En:   0.000D+00 0.100D+01
 Coeff:      0.183D-02-0.392D-02-0.195D-02 0.877D-02 0.427D-01 0.109D+00
 Coeff:      0.187D+00 0.656D+00
 Gap=     0.195 Goal=   None    Shift=    0.000
 RMSDP=1.00D-05 MaxDP=1.84D-03 DE=-7.27D-05 OVMax= 4.76D-04

 Cycle   9  Pass 1  IDiag  1:
 RMSU=  6.99D-06    CP:  7.22D-01  1.10D+00  4.98D-01  6.73D-01  6.95D-01
                    CP:  7.33D-01  7.05D-01  8.66D-01
 E= -1096.54708821411     Delta-E=       -0.000002117832 Rises=F Damp=F
 DIIS: error= 2.34D-05 at cycle   9 NSaved=   9.
 NSaved= 9 IEnMin= 9 EnMin= -1096.54708821411     IErMin= 9 ErrMin= 2.34D-05
 ErrMax= 2.34D-05  0.00D+00 EMaxC= 1.00D-01 BMatC= 5.11D-07 BMatP= 3.36D-06
 IDIUse=1 WtCom= 1.00D+00 WtEn= 0.00D+00
 Coeff-Com:  0.415D-03-0.869D-03-0.809D-03 0.140D-02 0.549D-02 0.225D-01
 Coeff-Com:  0.627D-01 0.367D+00 0.543D+00
 Coeff:      0.415D-03-0.869D-03-0.809D-03 0.140D-02 0.549D-02 0.225D-01
 Coeff:      0.627D-01 0.367D+00 0.543D+00
 Gap=     0.195 Goal=   None    Shift=    0.000
 RMSDP=3.15D-06 MaxDP=4.08D-04 DE=-2.12D-06 OVMax= 9.38D-05

 Cycle  10  Pass 1  IDiag  1:
 RMSU=  1.96D-06    CP:  7.22D-01  1.10D+00  4.98D-01  6.74D-01  6.94D-01
                    CP:  7.33D-01  7.19D-01  8.90D-01  7.62D-01
 E= -1096.54708861382     Delta-E=       -0.000000399710 Rises=F Damp=F
 DIIS: error= 7.04D-06 at cycle  10 NSaved=  10.
 NSaved=10 IEnMin=10 EnMin= -1096.54708861382     IErMin=10 ErrMin= 7.04D-06
 ErrMax= 7.04D-06  0.00D+00 EMaxC= 1.00D-01 BMatC= 2.79D-08 BMatP= 5.11D-07
 IDIUse=1 WtCom= 1.00D+00 WtEn= 0.00D+00
 Coeff-Com:  0.535D-04-0.106D-03-0.241D-03-0.109D-03-0.135D-02 0.144D-02
 Coeff-Com:  0.109D-01 0.114D+00 0.247D+00 0.629D+00
 Coeff:      0.535D-04-0.106D-03-0.241D-03-0.109D-03-0.135D-02 0.144D-02
 Coeff:      0.109D-01 0.114D+00 0.247D+00 0.629D+00
 Gap=     0.195 Goal=   None    Shift=    0.000
 RMSDP=8.53D-07 MaxDP=8.53D-05 DE=-4.00D-07 OVMax= 3.75D-05

 Cycle  11  Pass 1  IDiag  1:
 RMSU=  6.06D-07    CP:  7.22D-01  1.10D+00  4.98D-01  6.74D-01  6.94D-01
                    CP:  7.33D-01  7.21D-01  9.01D-01  7.66D-01  8.94D-01
 E= -1096.54708863169     Delta-E=       -0.000000017874 Rises=F Damp=F
 DIIS: error= 3.72D-06 at cycle  11 NSaved=  11.
 NSaved=11 IEnMin=11 EnMin= -1096.54708863169     IErMin=11 ErrMin= 3.72D-06
 ErrMax= 3.72D-06  0.00D+00 EMaxC= 1.00D-01 BMatC= 4.58D-09 BMatP= 2.79D-08
 IDIUse=1 WtCom= 1.00D+00 WtEn= 0.00D+00
 Coeff-Com:  0.196D-05-0.176D-06-0.582D-04-0.131D-03-0.103D-02-0.533D-03
 Coeff-Com: -0.790D-04 0.285D-01 0.799D-01 0.336D+00 0.557D+00
 Coeff:      0.196D-05-0.176D-06-0.582D-04-0.131D-03-0.103D-02-0.533D-03
 Coeff:     -0.790D-04 0.285D-01 0.799D-01 0.336D+00 0.557D+00
 Gap=     0.195 Goal=   None    Shift=    0.000
 RMSDP=4.37D-07 MaxDP=4.76D-05 DE=-1.79D-08 OVMax= 1.65D-05

 Cycle  12  Pass 1  IDiag  1:
 RMSU=  2.80D-07    CP:  7.22D-01  1.10D+00  4.98D-01  6.74D-01  6.94D-01
                    CP:  7.34D-01  7.22D-01  9.01D-01  7.61D-01  9.54D-01
                    CP:  6.51D-01
 E= -1096.54708863564     Delta-E=       -0.000000003952 Rises=F Damp=F
 DIIS: error= 1.02D-06 at cycle  12 NSaved=  12.
 NSaved=12 IEnMin=12 EnMin= -1096.54708863564     IErMin=12 ErrMin= 1.02D-06
 ErrMax= 1.02D-06  0.00D+00 EMaxC= 1.00D-01 BMatC= 4.26D-10 BMatP= 4.58D-09
 IDIUse=1 WtCom= 1.00D+00 WtEn= 0.00D+00
 Coeff-Com: -0.104D-05 0.177D-05-0.257D-05-0.474D-04-0.307D-03-0.315D-03
 Coeff-Com: -0.181D-02-0.209D-02 0.180D-02 0.551D-01 0.243D+00 0.704D+00
 Coeff:     -0.104D-05 0.177D-05-0.257D-05-0.474D-04-0.307D-03-0.315D-03
 Coeff:     -0.181D-02-0.209D-02 0.180D-02 0.551D-01 0.243D+00 0.704D+00
 Gap=     0.195 Goal=   None    Shift=    0.000
 RMSDP=1.54D-07 MaxDP=1.73D-05 DE=-3.95D-09 OVMax= 5.06D-06

 Cycle  13  Pass 1  IDiag  1:
 RMSU=  8.15D-08    CP:  7.22D-01  1.10D+00  4.98D-01  6.74D-01  6.94D-01
                    CP:  7.34D-01  7.22D-01  9.03D-01  7.66D-01  9.65D-01
                    CP:  7.45D-01  8.25D-01
 E= -1096.54708863586     Delta-E=       -0.000000000216 Rises=F Damp=F
 DIIS: error= 3.51D-07 at cycle  13 NSaved=  13.
 NSaved=13 IEnMin=13 EnMin= -1096.54708863586     IErMin=13 ErrMin= 3.51D-07
 ErrMax= 3.51D-07  0.00D+00 EMaxC= 1.00D-01 BMatC= 6.34D-11 BMatP= 4.26D-10
 IDIUse=1 WtCom= 1.00D+00 WtEn= 0.00D+00
 Coeff-Com: -0.481D-06 0.682D-07 0.383D-05-0.880D-05-0.586D-04-0.959D-04
 Coeff-Com: -0.990D-03-0.408D-02-0.790D-02-0.810D-02 0.687D-01 0.375D+00
 Coeff-Com:  0.578D+00
 Coeff:     -0.481D-06 0.682D-07 0.383D-05-0.880D-05-0.586D-04-0.959D-04
 Coeff:     -0.990D-03-0.408D-02-0.790D-02-0.810D-02 0.687D-01 0.375D+00
 Coeff:      0.578D+00
 Gap=     0.195 Goal=   None    Shift=    0.000
 RMSDP=5.00D-08 MaxDP=4.90D-06 DE=-2.16D-10 OVMax= 3.33D-06

 Cycle  14  Pass 1  IDiag  1:
 RMSU=  2.37D-08    CP:  7.22D-01  1.10D+00  4.98D-01  6.74D-01  6.94D-01
                    CP:  7.34D-01  7.22D-01  9.03D-01  7.66D-01  9.72D-01
                    CP:  7.40D-01  8.99D-01  7.51D-01
 E= -1096.54708863605     Delta-E=       -0.000000000188 Rises=F Damp=F
 DIIS: error= 9.43D-08 at cycle  14 NSaved=  14.
 NSaved=14 IEnMin=14 EnMin= -1096.54708863605     IErMin=14 ErrMin= 9.43D-08
 ErrMax= 9.43D-08  0.00D+00 EMaxC= 1.00D-01 BMatC= 7.43D-12 BMatP= 6.34D-11
 IDIUse=1 WtCom= 1.00D+00 WtEn= 0.00D+00
 Coeff-Com: -0.498D-06 0.675D-06 0.244D-05 0.760D-06-0.722D-05-0.318D-04
 Coeff-Com: -0.381D-03-0.199D-02-0.447D-02-0.934D-02 0.129D-01 0.130D+00
 Coeff-Com:  0.316D+00 0.557D+00
 Coeff:     -0.498D-06 0.675D-06 0.244D-05 0.760D-06-0.722D-05-0.318D-04
 Coeff:     -0.381D-03-0.199D-02-0.447D-02-0.934D-02 0.129D-01 0.130D+00
 Coeff:      0.316D+00 0.557D+00
 Gap=     0.195 Goal=   None    Shift=    0.000
 RMSDP=1.22D-08 MaxDP=1.27D-06 DE=-1.88D-10 OVMax= 1.02D-06

 Cycle  15  Pass 1  IDiag  1:
 RMSU=  7.75D-09    CP:  7.22D-01  1.10D+00  4.98D-01  6.74D-01  6.94D-01
                    CP:  7.34D-01  7.22D-01  9.03D-01  7.66D-01  9.72D-01
                    CP:  7.46D-01  9.04D-01  7.90D-01  8.23D-01
 E= -1096.54708863600     Delta-E=        0.000000000051 Rises=F Damp=F
 DIIS: error= 3.51D-08 at cycle  15 NSaved=  15.
 NSaved=15 IEnMin=14 EnMin= -1096.54708863605     IErMin=15 ErrMin= 3.51D-08
 ErrMax= 3.51D-08  0.00D+00 EMaxC= 1.00D-01 BMatC= 7.83D-13 BMatP= 7.43D-12
 IDIUse=1 WtCom= 1.00D+00 WtEn= 0.00D+00
 Coeff-Com:  0.571D-08-0.655D-07 0.325D-06 0.243D-05 0.660D-05 0.348D-05
 Coeff-Com: -0.585D-04-0.447D-03-0.130D-02-0.377D-02-0.294D-02 0.180D-01
 Coeff-Com:  0.938D-01 0.289D+00 0.607D+00
 Coeff:      0.571D-08-0.655D-07 0.325D-06 0.243D-05 0.660D-05 0.348D-05
 Coeff:     -0.585D-04-0.447D-03-0.130D-02-0.377D-02-0.294D-02 0.180D-01
 Coeff:      0.938D-01 0.289D+00 0.607D+00
 Gap=     0.195 Goal=   None    Shift=    0.000
 RMSDP=4.23D-09 MaxDP=4.62D-07 DE= 5.09D-11 OVMax= 3.16D-07

 Error on total polarization charges =  0.01931
 SCF Done:  E(RN12SX) =  -1096.54708864     A.U. after   15 cycles
            NFock= 15  Conv=0.42D-08     -V/T= 2.0057
 KE= 1.090340304636D+03 PE=-7.062619037186D+03 EE= 2.621340354786D+03
 Leave Link  502 at Thu Oct  7 08:25:03 2021, MaxMem=  6710886400 cpu:     12129.3
 (Enter /usr/local/gqt/g09/l601.exe)
 Copying SCF densities to generalized density rwf, IOpCl= 0 IROHF=0.

 **********************************************************************

            Population analysis using the SCF density.

 **********************************************************************

 Orbital symmetries:
       Occupied  (A) (A) (A) (A) (A) (A) (A) (A) (A) (A) (A) (A)
                 (A) (A) (A) (A) (A) (A) (A) (A) (A) (A) (A) (A)
                 (A) (A) (A) (A) (A) (A) (A) (A) (A) (A) (A) (A)
                 (A) (A) (A) (A) (A) (A) (A) (A) (A) (A) (A) (A)
                 (A) (A) (A) (A) (A) (A) (A) (A) (A) (A) (A) (A)
                 (A) (A) (A) (A) (A) (A) (A) (A) (A) (A) (A) (A)
                 (A) (A) (A) (A) (A) (A) (A) (A) (A) (A) (A) (A)
                 (A) (A) (A) (A) (A) (A) (A) (A) (A) (A)
       Virtual   (A) (A) (A) (A) (A) (A) (A) (A) (A) (A) (A) (A)
                 (A) (A) (A) (A) (A) (A) (A) (A) (A) (A) (A) (A)
                 (A) (A) (A) (A) (A) (A) (A) (A) (A) (A) (A) (A)
                 (A) (A) (A) (A) (A) (A) (A) (A) (A) (A) (A) (A)
                 (A) (A) (A) (A) (A) (A) (A) (A) (A) (A) (A) (A)
                 (A) (A) (A) (A) (A) (A) (A) (A) (A) (A) (A) (A)
                 (A) (A) (A) (A) (A) (A) (A) (A) (A) (A) (A) (A)
                 (A) (A) (A) (A) (A) (A) (A) (A) (A) (A) (A) (A)
                 (A) (A) (A) (A) (A) (A) (A) (A) (A) (A) (A) (A)
                 (A) (A) (A) (A) (A) (A) (A) (A) (A) (A) (A) (A)
                 (A) (A) (A) (A) (A) (A) (A) (A) (A) (A) (A) (A)
                 (A) (A) (A) (A) (A) (A) (A) (A) (A) (A) (A) (A)
                 (A) (A) (A) (A) (A) (A) (A) (A) (A) (A) (A) (A)
                 (A) (A) (A) (A) (A) (A) (A) (A) (A) (A) (A) (A)
                 (A) (A) (A) (A) (A) (A) (A) (A) (A) (A) (A) (A)
                 (A) (A) (A) (A) (A) (A) (A) (A) (A) (A) (A) (A)
                 (A) (A) (A) (A) (A) (A) (A) (A) (A) (A) (A) (A)
                 (A) (A) (A) (A) (A) (A) (A) (A) (A) (A) (A) (A)
                 (A) (A) (A) (A) (A) (A) (A) (A) (A) (A) (A) (A)
                 (A) (A) (A) (A) (A) (A) (A) (A) (A) (A) (A) (A)
                 (A) (A) (A) (A) (A) (A) (A) (A) (A) (A) (A) (A)
                 (A) (A) (A) (A) (A) (A) (A) (A) (A) (A) (A) (A)
                 (A) (A) (A) (A) (A) (A) (A) (A) (A) (A) (A) (A)
                 (A) (A) (A) (A) (A) (A) (A) (A) (A) (A) (A) (A)
                 (A) (A) (A) (A) (A) (A) (A) (A) (A) (A) (A) (A)
                 (A) (A) (A) (A) (A) (A) (A) (A) (A) (A) (A) (A)
                 (A) (A) (A) (A) (A) (A) (A) (A) (A) (A) (A) (A)
                 (A) (A) (A) (A) (A) (A) (A) (A) (A) (A) (A) (A)
                 (A) (A) (A) (A) (A) (A) (A) (A) (A) (A) (A) (A)
                 (A) (A) (A) (A) (A) (A) (A) (A) (A) (A) (A) (A)
                 (A) (A) (A) (A) (A) (A) (A) (A) (A) (A) (A) (A)
                 (A) (A) (A) (A) (A) (A) (A) (A) (A) (A) (A) (A)
                 (A) (A) (A) (A) (A) (A) (A) (A) (A) (A) (A) (A)
                 (A) (A) (A) (A) (A) (A) (A) (A) (A) (A) (A) (A)
                 (A) (A) (A) (A) (A) (A) (A) (A) (A) (A) (A) (A)
                 (A) (A) (A) (A) (A) (A) (A) (A) (A) (A) (A) (A)
                 (A) (A) (A) (A) (A) (A) (A) (A) (A) (A) (A) (A)
                 (A) (A) (A) (A) (A) (A) (A) (A) (A) (A) (A) (A)
                 (A) (A) (A) (A) (A) (A) (A) (A) (A) (A) (A) (A)
                 (A) (A) (A) (A) (A) (A) (A) (A) (A) (A) (A) (A)
                 (A) (A) (A) (A) (A) (A) (A) (A) (A) (A) (A) (A)
                 (A) (A) (A) (A) (A) (A) (A) (A) (A) (A) (A) (A)
                 (A) (A) (A) (A) (A) (A) (A) (A) (A) (A) (A) (A)
                 (A) (A) (A) (A) (A) (A) (A) (A) (A) (A) (A) (A)
                 (A) (A) (A) (A) (A) (A) (A) (A) (A) (A) (A) (A)
                 (A) (A) (A) (A) (A) (A) (A) (A) (A) (A) (A) (A)
                 (A) (A) (A) (A) (A) (A) (A) (A) (A) (A) (A) (A)
                 (A) (A) (A) (A) (A) (A) (A) (A) (A) (A) (A) (A)
                 (A) (A) (A) (A) (A) (A) (A) (A) (A) (A) (A) (A)
                 (A) (A) (A) (A) (A) (A) (A) (A) (A) (A) (A) (A)
                 (A) (A) (A) (A) (A) (A) (A) (A) (A) (A) (A) (A)
                 (A) (A) (A) (A) (A) (A) (A) (A) (A) (A) (A) (A)
                 (A) (A) (A) (A) (A) (A) (A) (A) (A) (A) (A) (A)
                 (A) (A) (A) (A) (A) (A) (A) (A)
 The electronic state is 1-A.
 Alpha  occ. eigenvalues --  -19.21698 -19.15509 -19.13745 -14.45310 -14.43712
 Alpha  occ. eigenvalues --  -14.40323 -10.36022 -10.31950 -10.28446 -10.28006
 Alpha  occ. eigenvalues --  -10.27370 -10.24924 -10.24466 -10.24310 -10.23368
 Alpha  occ. eigenvalues --  -10.22416 -10.22298 -10.21483 -10.21423 -10.20993
 Alpha  occ. eigenvalues --  -10.20976 -10.20462 -10.19788 -10.19653  -1.11409
 Alpha  occ. eigenvalues --   -1.10537  -1.01561  -0.99192  -0.98014  -0.85234
 Alpha  occ. eigenvalues --   -0.82229  -0.81496  -0.79066  -0.76586  -0.74048
 Alpha  occ. eigenvalues --   -0.73709  -0.69735  -0.69201  -0.69141  -0.69065
 Alpha  occ. eigenvalues --   -0.67740  -0.67207  -0.62750  -0.62647  -0.60112
 Alpha  occ. eigenvalues --   -0.56369  -0.54954  -0.54210  -0.52074  -0.51163
 Alpha  occ. eigenvalues --   -0.50021  -0.48754  -0.48479  -0.48081  -0.47421
 Alpha  occ. eigenvalues --   -0.45870  -0.45275  -0.45105  -0.44813  -0.44646
 Alpha  occ. eigenvalues --   -0.44230  -0.43918  -0.42967  -0.42582  -0.42285
 Alpha  occ. eigenvalues --   -0.41207  -0.39931  -0.39671  -0.39629  -0.39110
 Alpha  occ. eigenvalues --   -0.38482  -0.38068  -0.37770  -0.37306  -0.36708
 Alpha  occ. eigenvalues --   -0.36213  -0.35788  -0.35459  -0.35020  -0.34918
 Alpha  occ. eigenvalues --   -0.34683  -0.34314  -0.33479  -0.33202  -0.32561
 Alpha  occ. eigenvalues --   -0.32375  -0.31430  -0.30853  -0.30198  -0.29490
 Alpha  occ. eigenvalues --   -0.27624  -0.25226  -0.22879  -0.22627
 Alpha virt. eigenvalues --   -0.03167  -0.01446  -0.00897  -0.00204   0.00010
 Alpha virt. eigenvalues --    0.00077   0.00805   0.00979   0.01457   0.01852
 Alpha virt. eigenvalues --    0.01977   0.02187   0.02727   0.03009   0.03215
 Alpha virt. eigenvalues --    0.03608   0.03712   0.04404   0.04675   0.04888
 Alpha virt. eigenvalues --    0.05124   0.05194   0.05542   0.05735   0.06007
 Alpha virt. eigenvalues --    0.06439   0.06775   0.06956   0.07087   0.07621
 Alpha virt. eigenvalues --    0.07723   0.08000   0.08272   0.08327   0.08765
 Alpha virt. eigenvalues --    0.09109   0.09211   0.09783   0.10069   0.10218
 Alpha virt. eigenvalues --    0.10525   0.10768   0.10996   0.11218   0.11430
 Alpha virt. eigenvalues --    0.11703   0.11773   0.12048   0.12642   0.12964
 Alpha virt. eigenvalues --    0.12986   0.13405   0.13709   0.13995   0.14378
 Alpha virt. eigenvalues --    0.14904   0.15032   0.15352   0.15559   0.15752
 Alpha virt. eigenvalues --    0.15880   0.16060   0.16562   0.16779   0.17307
 Alpha virt. eigenvalues --    0.17370   0.17402   0.17737   0.18109   0.18152
 Alpha virt. eigenvalues --    0.18407   0.18630   0.18747   0.19137   0.19272
 Alpha virt. eigenvalues --    0.19571   0.19825   0.20064   0.20168   0.20382
 Alpha virt. eigenvalues --    0.20637   0.20859   0.20931   0.21237   0.21385
 Alpha virt. eigenvalues --    0.21704   0.21898   0.22232   0.22636   0.22806
 Alpha virt. eigenvalues --    0.23073   0.23289   0.23386   0.24039   0.24394
 Alpha virt. eigenvalues --    0.24677   0.24925   0.25103   0.25366   0.25725
 Alpha virt. eigenvalues --    0.26050   0.26192   0.26477   0.26590   0.27051
 Alpha virt. eigenvalues --    0.27437   0.27829   0.27976   0.28281   0.28502
 Alpha virt. eigenvalues --    0.28732   0.28853   0.29179   0.29402   0.29877
 Alpha virt. eigenvalues --    0.29933   0.30191   0.30369   0.30643   0.30801
 Alpha virt. eigenvalues --    0.31604   0.31745   0.31960   0.32359   0.32634
 Alpha virt. eigenvalues --    0.32757   0.33012   0.33362   0.33924   0.34132
 Alpha virt. eigenvalues --    0.34573   0.34795   0.35040   0.35624   0.36027
 Alpha virt. eigenvalues --    0.36659   0.36864   0.36908   0.37544   0.37786
 Alpha virt. eigenvalues --    0.38482   0.38644   0.39052   0.39134   0.39383
 Alpha virt. eigenvalues --    0.40252   0.40524   0.40970   0.41808   0.42507
 Alpha virt. eigenvalues --    0.42700   0.42883   0.43991   0.44293   0.45190
 Alpha virt. eigenvalues --    0.45721   0.46005   0.46777   0.46978   0.47378
 Alpha virt. eigenvalues --    0.48026   0.48790   0.49035   0.49522   0.49869
 Alpha virt. eigenvalues --    0.50154   0.51372   0.51867   0.52002   0.52271
 Alpha virt. eigenvalues --    0.52376   0.53179   0.53729   0.53998   0.54224
 Alpha virt. eigenvalues --    0.54716   0.55523   0.56041   0.56314   0.57166
 Alpha virt. eigenvalues --    0.57957   0.58393   0.58891   0.59176   0.60164
 Alpha virt. eigenvalues --    0.60592   0.60879   0.61147   0.61569   0.61949
 Alpha virt. eigenvalues --    0.62904   0.63536   0.63770   0.63916   0.64241
 Alpha virt. eigenvalues --    0.65542   0.65647   0.65800   0.66185   0.67048
 Alpha virt. eigenvalues --    0.67253   0.67571   0.68263   0.68550   0.68694
 Alpha virt. eigenvalues --    0.69203   0.69291   0.69732   0.70080   0.70458
 Alpha virt. eigenvalues --    0.70588   0.71317   0.71549   0.71702   0.72076
 Alpha virt. eigenvalues --    0.72497   0.72839   0.73313   0.73708   0.74195
 Alpha virt. eigenvalues --    0.74545   0.74659   0.74891   0.75428   0.75620
 Alpha virt. eigenvalues --    0.76084   0.76559   0.76998   0.77139   0.77634
 Alpha virt. eigenvalues --    0.78014   0.78644   0.78933   0.79209   0.79924
 Alpha virt. eigenvalues --    0.80581   0.80791   0.80996   0.81725   0.82535
 Alpha virt. eigenvalues --    0.83690   0.84299   0.85592   0.86374   0.86900
 Alpha virt. eigenvalues --    0.88148   0.89784   0.90821   0.91158   0.92929
 Alpha virt. eigenvalues --    0.94357   0.94955   0.96642   0.97259   0.97845
 Alpha virt. eigenvalues --    0.99107   0.99769   1.00130   1.01458   1.01850
 Alpha virt. eigenvalues --    1.02213   1.03173   1.03521   1.05379   1.05543
 Alpha virt. eigenvalues --    1.05752   1.07774   1.08643   1.09523   1.11097
 Alpha virt. eigenvalues --    1.11613   1.12329   1.12864   1.14852   1.15593
 Alpha virt. eigenvalues --    1.16475   1.16608   1.17121   1.18132   1.18382
 Alpha virt. eigenvalues --    1.19752   1.20316   1.21035   1.22398   1.23659
 Alpha virt. eigenvalues --    1.23887   1.24617   1.25383   1.26002   1.26477
 Alpha virt. eigenvalues --    1.27405   1.28215   1.28827   1.29106   1.29963
 Alpha virt. eigenvalues --    1.31020   1.31948   1.33276   1.33630   1.35516
 Alpha virt. eigenvalues --    1.35792   1.36172   1.37927   1.39303   1.39949
 Alpha virt. eigenvalues --    1.40475   1.41667   1.42087   1.43182   1.44799
 Alpha virt. eigenvalues --    1.45617   1.46480   1.47050   1.47216   1.47597
 Alpha virt. eigenvalues --    1.48159   1.48375   1.49010   1.49588   1.50446
 Alpha virt. eigenvalues --    1.50746   1.51378   1.51792   1.53458   1.54017
 Alpha virt. eigenvalues --    1.55214   1.55279   1.55669   1.56813   1.57047
 Alpha virt. eigenvalues --    1.57349   1.57923   1.57940   1.58314   1.58500
 Alpha virt. eigenvalues --    1.58754   1.59223   1.59635   1.59938   1.60443
 Alpha virt. eigenvalues --    1.61698   1.62148   1.62426   1.62653   1.62708
 Alpha virt. eigenvalues --    1.63243   1.63633   1.63969   1.64440   1.64833
 Alpha virt. eigenvalues --    1.65192   1.65992   1.67096   1.67329   1.67793
 Alpha virt. eigenvalues --    1.68171   1.68662   1.68815   1.69604   1.70430
 Alpha virt. eigenvalues --    1.71558   1.71699   1.72467   1.73187   1.73617
 Alpha virt. eigenvalues --    1.73743   1.74523   1.74728   1.75065   1.75475
 Alpha virt. eigenvalues --    1.75882   1.76623   1.77180   1.77505   1.78205
 Alpha virt. eigenvalues --    1.78885   1.79717   1.80000   1.80359   1.81485
 Alpha virt. eigenvalues --    1.82404   1.82841   1.83345   1.84607   1.85065
 Alpha virt. eigenvalues --    1.85273   1.86481   1.87645   1.87685   1.88266
 Alpha virt. eigenvalues --    1.88865   1.89660   1.90347   1.90543   1.91012
 Alpha virt. eigenvalues --    1.91769   1.93391   1.94501   1.95774   1.96944
 Alpha virt. eigenvalues --    1.97985   1.98411   1.98705   1.99125   1.99845
 Alpha virt. eigenvalues --    2.00362   2.01343   2.01989   2.04686   2.06155
 Alpha virt. eigenvalues --    2.08307   2.08725   2.09596   2.10476   2.11086
 Alpha virt. eigenvalues --    2.12458   2.13718   2.14048   2.14903   2.15485
 Alpha virt. eigenvalues --    2.17134   2.17998   2.18734   2.20310   2.21121
 Alpha virt. eigenvalues --    2.21374   2.22327   2.22866   2.23419   2.24487
 Alpha virt. eigenvalues --    2.25432   2.25793   2.26083   2.27303   2.28086
 Alpha virt. eigenvalues --    2.28642   2.29287   2.29741   2.32007   2.32863
 Alpha virt. eigenvalues --    2.33738   2.33961   2.34464   2.35414   2.37238
 Alpha virt. eigenvalues --    2.37569   2.39193   2.42552   2.43603   2.44042
 Alpha virt. eigenvalues --    2.44267   2.45104   2.45849   2.47020   2.48902
 Alpha virt. eigenvalues --    2.49523   2.49907   2.50138   2.50419   2.50741
 Alpha virt. eigenvalues --    2.50985   2.51344   2.52063   2.52596   2.52904
 Alpha virt. eigenvalues --    2.53961   2.53997   2.54282   2.55158   2.55274
[...]
 35,-0.00000210,-0.00000387,0.00000319,-0.00000160,0.00000818,-0.000001
 18,0.00000443,0.00000270,0.00001694,-0.00001187,-0.00000850,0.00000542
 ,-0.00000567,-0.00000140,-0.00000182,0.00000043,-0.00000157,-0.0000015
 3,0.00000135,0.00287442,-0.00105247,-0.00102804,-0.00005403,0.00001401
 ,0.00003904,0.00001874,0.00002047,0.00000769,0.00001418,0.00000880,0.0
 0000588,-0.00000151,-0.00000514,-0.00000383,-0.00003127,0.00005984,0.0
 0002962,0.00000259,-0.00000026,-0.00000885,0.00000807,-0.00000350,0.00
 001502,0.00000664,-0.00000721,0.00002909,0.00000242,-0.00000458,-0.000
 00164,-0.00000084,-0.00002870,0.00000867,0.00001558,0.00001433,-0.0000
 2242,0.00001078,0.00001186,0.00003033,0.00006170,-0.00007176,-0.000131
 01,-0.00004600,-0.00002180,-0.00003783,0.00000724,0.00001265,0.0000095
 6,-0.00000292,0.00000743,0.00002352,-0.00003390,-0.00013692,0.00003512
 ,0.00001356,0.00005594,-0.00006629,0.00004271,0.00000865,-0.00004444,0
 .00003183,0.00000236,0.00001504,0.00022026,0.00009081,-0.00006187,0.00
 005389,0.00002643,0.00000472,0.00003867,-0.00001503,-0.00000970,-0.000
 09482,-0.00019064,-0.00005515,-0.17388282,-0.08695116,-0.10747434,0.18
 980549,0.00098252,0.00008710,0.00068744,0.01259116,0.00615674,0.010816
 69,0.00275074,-0.00121856,-0.00177161,-0.00056523,0.00028320,0.0000722
 4,-0.00014416,-0.00041392,-0.00028166,-0.00007347,-0.00005346,-0.00000
 045,-0.00018317,0.00000140,-0.00006532,0.00014543,-0.00003284,0.000063
 20,0.00000586,0.00003898,-0.00003319,-0.00000302,-0.00000504,0.0000007
 6,-0.00000262,-0.00000337,0.00000658,0.00000002,0.00000005,0.00000005,
 -0.00000161,0.00000073,-0.00000034,0.00000001,0.00000014,-0.00000011,0
 .00000011,-0.00000003,0.00000006,-0.00000001,0.00000003,0.00000001,0.0
 0000033,-0.00000045,-0.00000044,0.00000034,0.00000019,-0.00000041,-0.0
 0000192,-0.00000046,0.00000204,0.00000025,0.00000013,-0.00000003,-0.00
 000006,-0.00000023,0.00000003,-0.00000003,-0.00000015,-0.00000010,0.00
 000018,0.00000041,0.00000006,0.00000255,-0.00000018,0.00000113,0.00000
 110,-0.00000106,0.00000083,-0.00000269,0.00000037,-0.00000181,-0.00000
 185,-0.00000740,0.00000645,0.00000390,-0.00000231,0.00000236,0.0000004
 9,0.00000051,-0.00000042,-0.00000022,0.00000092,-0.00000033,0.00043932
 ,-0.00002280,0.00037551,0.00001142,-0.00000915,-0.00000559,-0.00000968
 ,-0.00000062,0.00000126,-0.00000568,-0.00000324,-0.00000564,0.00000435
 ,-0.00000078,-0.00000113,0.00000570,-0.00000138,-0.00000335,-0.0000044
 5,-0.00000062,0.00000202,-0.00000457,0.00000428,-0.00000621,-0.0000009
 0,0.00000115,-0.00000064,0.00000053,0.00001106,0.00002136,0.00000241,0
 .00001078,-0.00000514,-0.00000622,-0.00000432,0.00000923,-0.00001311,0
 .00000027,-0.00001055,-0.00001141,0.00013595,0.00001686,0.00003126,0.0
 0000362,0.00002095,0.00000601,-0.00000919,-0.00000281,-0.00004199,0.00
 001307,-0.00001659,-0.00003505,0.00001997,0.00011521,0.00006543,-0.000
 00329,-0.00003630,0.00002722,-0.00000974,0.00003328,0.00002708,0.00002
 587,-0.00001462,0.00049481,-0.00051044,-0.00063963,0.00005330,0.000013
 80,0.00004569,-0.00037130,0.00008958,-0.00007005,-0.00072453,0.0000580
 9,0.00013829,-0.09159723,-0.10769039,-0.07772316,0.09343388,0.11469116
 ,0.00049442,-0.00038819,0.00021567,0.00361457,0.00381390,0.00205667,0.
 00084549,-0.00097178,0.00032806,0.00010418,0.00065004,-0.00008054,0.00
 027645,-0.00003713,-0.00016263,-0.00001425,0.00001542,-0.00001660,-0.0
 0005480,-0.00001020,-0.00001780,0.00004162,0.00000604,0.00001807,0.000
 00335,0.00000247,-0.00000755,-0.00000075,0.00000091,0.00000131,-0.0000
 0112,-0.00000286,0.00000311,0.,0.00000003,0.00000019,0.00000012,-0.000
 00083,0.00000110,0.00000018,0.00000031,-0.00000030,-0.00000003,0.00000
 002,-0.00000011,-0.00000014,0.00000010,0.00000009,0.00000036,-0.000000
 42,-0.00000034,0.00000013,0.00000012,-0.00000023,0.00000005,-0.0000004
 7,0.00000063,0.00000020,0.00000006,-0.00000002,0.00000011,-0.00000021,
 0.00000011,0.00000004,0.00000044,-0.00000030,-0.00000011,0.00000017,0.
 00000014,-0.00000173,0.00000092,-0.00000115,-0.00000094,0.00000175,-0.
 00000061,0.00000149,-0.00000178,0.00000107,-0.00000084,-0.00000112,0.0
 0000234,0.00000066,-0.00000028,0.00000010,0.00000050,0.00000029,0.0000
 0020,-0.00000053,0.00000004,-0.00000010,0.00097296,-0.00098441,0.00007
 570,-0.00001082,-0.00000598,0.00000004,0.00000358,0.00000237,-0.000000
 93,-0.00000264,-0.00000700,0.00000587,-0.00000372,0.00000628,-0.000001
 56,0.00001021,0.00000333,0.00000209,-0.00000140,0.00000039,-0.00000093
 ,-0.00000675,-0.00000270,-0.00001164,-0.00000617,0.00000271,0.00000135
 ,-0.00000379,0.00000676,0.00001124,-0.00000055,0.00000234,-0.00000256,
 0.00000058,-0.00000005,0.00000146,-0.00000559,0.00000274,-0.00000116,0
 .00000575,0.00000645,0.00005754,0.00001014,-0.00000322,0.00000188,-0.0
 0002960,-0.00001241,0.00000656,-0.00001292,0.00001405,-0.00001411,0.00
 038804,0.00012127,-0.00025851,-0.00037316,-0.00012035,0.00016740,-0.00
 018105,-0.00000356,-0.00005227,-0.00014110,0.00001860,-0.00004915,0.00
 032128,-0.00024072,0.00009583,-0.00016294,-0.00003982,0.00000200,-0.00
 011931,-0.00003265,0.00001919,-0.00028050,0.00020699,-0.00007000,-0.11
 125837,-0.07662593,-0.14203284,0.11905119,0.08451058,0.14895838,-0.000
 64826,0.00051904,0.00188355,0.00053514,0.03223074,-0.00732268,0.000875
 28,-0.00085681,-0.00013216,-0.00328806,-0.00032534,0.00042410,-0.00002
 636,0.00074233,0.00007218,-0.00005571,-0.00062974,-0.00035162,0.000235
 28,-0.00005734,0.00009408,-0.00016629,0.00006106,-0.00009009,-0.000007
 38,-0.00004620,0.00004494,0.00000304,0.00000224,0.00000053,0.00000424,
 0.00000301,-0.00000850,-0.00000033,-0.00000038,-0.00000040,0.00000364,
 -0.00000077,-0.00000123,-0.00000023,-0.00000060,0.00000045,0.,-0.00000
 005,-0.00000012,0.,-0.00000013,-0.00000004,-0.00000139,0.00000145,0.00
 000074,-0.00000031,0.00000014,-0.00000029,0.00000423,0.00000249,-0.000
 00139,-0.00000061,-0.00000048,-0.00000029,-0.00000003,0.00000050,0.000
 00008,0.00000008,0.00000002,0.00000005,-0.00000075,-0.00000098,0.,-0.0
 0000640,-0.00000165,-0.00000190,-0.00000262,0.00000068,-0.00000135,0.0
 0000657,0.00000143,0.00000382,0.00000209,0.00000831,-0.00000933,-0.000
 00547,0.00000334,-0.00000356,-0.00000224,-0.00000131,-0.00000045,-0.00
 000036,-0.00000069,0.00000110,0.00038119,-0.00007964,-0.00106657,-0.00
 000766,0.00000680,0.00008441,-0.00000178,0.00004741,0.00001955,-0.0000
 1766,-0.00000419,-0.00001983,-0.00000060,-0.00000385,-0.00001202,-0.00
 003671,0.00012292,0.00004172,-0.00000992,-0.00000340,-0.00001210,-0.00
 000121,-0.00000348,-0.00002676,-0.00000438,-0.00000110,0.00006370,0.00
 001335,0.00007488,0.00013493,0.00000191,-0.00000864,-0.00001641,0.0000
 2175,0.00000173,-0.00001019,-0.00004430,0.00005034,0.00000153,0.000028
 73,-0.00015150,-0.00007091,-0.00002791,-0.00002106,-0.00003015,0.00000
 341,0.00001816,0.00000031,0.00004431,-0.00001477,0.00003326,-0.0000506
 1,-0.00014486,-0.00007461,-0.00000480,0.00002442,-0.00005895,0.0000479
 2,0.00001386,-0.00004822,0.00000300,-0.00003219,0.00004547,-0.00028118
 ,-0.00000698,-0.00035779,-0.00011897,-0.00008033,0.00006158,0.00009160
 ,-0.00005840,0.00013077,-0.00046796,-0.00070141,-0.00144948,-0.0455458
 4,-0.00928234,0.00248113,-0.00047963,-0.02021286,0.00734019,0.05010705
 ,0.00052603,-0.00071279,-0.00089653,0.00249348,-0.01280986,0.00045444,
 -0.00098927,0.00029631,-0.00056255,0.00193821,0.00042157,-0.00001818,0
 .00004680,-0.00051060,-0.00007114,0.00001990,0.00032422,0.00025776,-0.
 00021658,0.00002925,-0.00006555,0.00015433,-0.00004630,0.00007041,0.00
 000435,0.00004217,-0.00003866,-0.00000380,-0.00000161,0.00000094,-0.00
 000388,-0.00000354,0.00000526,0.00000020,0.00000039,0.00000022,-0.0000
 0303,0.00000011,0.00000077,-0.00000011,0.00000038,-0.00000002,-0.00000
 009,0.,0.00000011,0.00000005,0.00000009,0.,0.00000116,-0.00000119,-0.0
 0000059,0.00000025,-0.00000015,-0.00000002,-0.00000342,-0.00000157,0.0
 0000216,0.00000052,0.00000041,0.00000019,-0.00000017,-0.00000039,-0.00
 000026,-0.00000028,-0.00000002,0.00000018,0.00000086,0.00000084,-0.000
 00013,0.00000553,0.00000170,0.00000135,0.00000229,-0.00000034,0.000000
 88,-0.00000553,-0.00000150,-0.00000294,-0.00000152,-0.00000715,0.00000
 642,0.00000442,-0.00000294,0.00000308,0.00000215,0.00000132,0.00000045
 ,0.00000093,0.00000054,-0.00000096,0.00017601,0.00013829,0.00166743,0.
 00000711,-0.00000253,-0.00006117,0.00000473,-0.00003375,-0.00001371,0.
 00001356,0.00000287,0.00001747,-0.00000014,0.00000514,0.00000550,0.000
 02724,-0.00007299,-0.00001368,0.00000759,0.00000525,0.00000485,0.00000
 023,-0.00000182,0.00001163,0.00000353,0.00000177,-0.00003935,-0.000007
 79,-0.00005344,-0.00009372,-0.00000276,0.00001116,0.00000654,-0.000012
 86,-0.00000027,0.00001108,0.00003131,-0.00002915,-0.00000732,-0.000021
 02,0.00010998,0.00000103,0.00002091,0.00001588,0.00003072,0.00000921,-
 0.00001367,0.00000047,-0.00003544,0.00001515,-0.00001716,-0.00009814,0
 .00010976,0.00006134,0.00005488,0.00000821,-0.00000595,0.00000049,-0.0
 0001286,0.00004072,0.00001751,0.00001470,-0.00002350,0.00000377,-0.000
 45682,-0.00125217,0.00013640,0.00001173,0.00010596,-0.00042799,0.00012
 151,-0.00010012,-0.00152539,-0.00016052,-0.00083634,-0.01002370,-0.301
 76005,0.07231100,-0.00000665,-0.01216830,0.00422646,0.00811627,0.32832
 754,0.00014000,-0.00025810,-0.00001825,-0.00025179,-0.00714864,-0.0001
 4290,-0.00071437,0.00014852,0.00016032,0.00057496,0.00084964,-0.000789
 20,0.00002505,0.00040532,-0.00006199,0.00006990,0.00015454,0.00007396,
 -0.00009613,0.00001188,-0.00000620,0.00007650,-0.00003506,0.00002061,-
 0.00000230,0.00002924,-0.00001990,-0.00000160,-0.00000359,-0.00000115,
 -0.00000176,0.00000142,-0.00000029,-0.00000013,-0.00000001,-0.00000009
 ,-0.00000176,0.00000082,0.00000089,-0.00000047,0.00000003,0.00000047,-
 0.00000011,0.00000004,0.00000007,0.00000023,-0.00000003,-0.00000008,0.
 00000048,-0.00000049,-0.00000049,0.00000030,-0.00000031,-0.00000040,-0
 .00000168,-0.00000037,0.00000191,0.00000001,-0.00000001,0.00000012,-0.
 00000009,0.00000015,-0.00000052,-0.00000001,-0.00000003,0.00000051,0.0
 0000060,0.00000035,-0.00000027,0.00000260,-0.00000024,0.00000014,0.000
 00137,-0.00000144,0.00000028,-0.00000249,0.00000116,-0.00000085,0.0000
 0004,-0.00000389,0.00000142,0.00000226,-0.00000167,0.00000192,0.000000
 49,0.00000053,-0.00000004,0.00000137,0.00000020,-0.00000029,0.00109946
 ,-0.00120500,0.00036824,-0.00001445,-0.00000647,-0.00002157,0.00000894
 ,-0.00001114,-0.00000188,0.00000954,0.00000603,0.00001004,-0.00000111,
 0.00000120,0.00000153,0.00001517,-0.00002342,-0.00000490,0.00000547,0.
 00000040,0.00000107,-0.00000398,-0.00000611,0.00000692,0.00000039,0.00
 000107,-0.00001296,0.00000455,-0.00002854,-0.00003776,0.00000125,0.000
 00527,0.00000199,-0.00000575,-0.00000047,0.00000452,0.00001237,-0.0000
 1421,-0.00000112,-0.00000068,-0.00020759,0.00006258,-0.00001629,0.0000
 0712,-0.00000944,-0.00002186,0.00000180,-0.00000134,0.00007492,-0.0000
 2301,0.00001053,0.00018492,0.00002115,-0.00016098,-0.00009375,0.000048
 63,0.00013580,-0.00007746,-0.00001271,0.00000364,-0.00006793,-0.000044
 75,0.00003006,-0.00070581,0.00014665,0.00021583,0.00001298,-0.00001436
 ,-0.00001553,0.00035862,-0.00002016,0.00013553,-0.00079246,-0.00091148
 ,-0.00180352,0.00203775,0.07117490,-0.06235276,0.00059018,-0.01852313,
 0.00537795,-0.00328586,-0.07490129,0.06628646,-0.00013071,0.00140199,0
 .00115664,-0.00718322,-0.00230030,0.03024970,0.00180674,-0.00063830,-0
 .00097049,-0.00205084,0.00180799,-0.00052849,-0.00074775,-0.00008846,0
 .00059914,-0.00005672,-0.00009539,-0.00072770,0.00016008,-0.00000159,0
 .00004968,-0.00010261,0.00001303,-0.00006370,-0.00000383,-0.00002400,0
 .00003611,0.00000294,-0.00000345,-0.00000006,0.00000320,0.00000482,-0.
 00001125,-0.00000026,-0.00000031,-0.00000041,0.00000384,-0.00000149,0.
 00000007,-0.00000058,-0.00000032,0.00000067,-0.00000025,0.00000001,-0.
 00000014,0.00000006,-0.00000008,-0.00000005,-0.00000075,0.00000066,0.0
 0000032,0.00000054,-0.00000001,-0.00000091,0.00000229,0.00000106,-0.00
 000020,-0.00000044,-0.00000039,-0.00000014,0.00000026,0.00000026,-0.00
 000004,0.00000011,0.00000046,0.00000005,-0.00000051,-0.00000060,-0.000
 00011,-0.00000615,-0.00000067,-0.00000301,-0.00000236,0.00000112,-0.00
 000193,0.00000601,0.00000075,0.00000464,0.00000133,0.00000276,-0.00000
 703,-0.00000281,0.00000205,-0.00000165,-0.00000230,-0.00000068,-0.0000
 0017,0.00000115,-0.00000059,0.00000038,-0.00244166,-0.00016086,-0.0000
 9361,-0.00005276,0.00001291,0.00008261,0.00000527,0.00004538,0.0000189
 5,-0.00001298,-0.00002163,-0.00002056,-0.00000388,-0.00000116,-0.00000
 854,0.00002767,0.00004878,0.00001749,-0.00000400,-0.00000681,-0.000006
 66,-0.00001453,-0.00000510,-0.00001805,-0.00001657,0.00000675,0.000039
 65,0.00001204,0.00011365,0.00016557,0.00001290,-0.00000960,-0.00000311
 ,0.00000190,-0.00001191,-0.00000871,-0.00007443,0.00001609,0.00001724,
 0.00003826,-0.00004928,-0.00024593,-0.00003218,-0.00001860,-0.00002600
 ,0.00010423,0.00003257,-0.00000688,0.00003559,-0.00001575,0.00003427,-
 0.00109059,-0.00005922,0.00004153,0.00006831,0.00046666,-0.00151667,0.
 00040481,0.00002055,0.00009850,0.00030923,-0.00005379,0.00011250,-0.00
 038288,-0.00006102,-0.00013493,0.00014620,0.00007249,-0.00003236,0.000
 15315,-0.00002528,0.00003953,0.00007499,-0.00055271,-0.00008675,-0.072
 18782,-0.00461664,0.07758313,0.00774421,0.00293132,-0.02081223,-0.0010
 9992,-0.00044264,0.00084941,0.07657898,0.00012587,-0.00026974,-0.00000
 235,0.00328050,-0.00130473,-0.01672811,-0.00087213,0.00048646,0.000275
 64,0.00030512,-0.00137964,0.00008237,0.00010963,0.00032948,-0.00015477
 ,0.00012272,0.00002923,0.00031377,-0.00012083,0.00002668,-0.00002427,0
 .00009401,-0.00004327,0.00003842,0.00000118,0.00003527,-0.00002658,-0.
 00000131,-0.00000469,-0.00000174,-0.00000206,0.00000083,0.00000350,-0.
 00000015,0.00000002,-0.00000001,-0.00000237,0.00000193,0.00000039,-0.0
 0000020,0.00000003,0.00000021,0.,0.,0.00000012,0.00000019,-0.00000004,
 -0.00000007,0.00000058,-0.00000036,-0.00000045,0.00000014,-0.00000006,
 -0.00000014,-0.00000227,-0.00000047,0.00000113,0.00000007,0.00000004,0
 .00000015,-0.00000020,0.00000016,-0.00000040,0.00000002,-0.00000036,0.
 00000041,0.00000054,0.00000038,-0.00000022,0.00000411,-0.00000075,0.00
 000141,0.00000188,-0.00000239,0.00000101,-0.00000370,0.00000177,-0.000
 00233,-0.00000071,-0.00000519,0.00000365,0.00000315,-0.00000200,0.0000
 0232,0.00000045,0.00000030,-0.00000035,0.00000062,0.00000064,-0.000000
 30,0.00317729,-0.00003099,-0.00062823,0.00003441,0.00000478,-0.0000328
 5,-0.00000633,-0.00002319,-0.00000636,0.00000035,0.00000995,0.00000220
 ,0.00000328,-0.00000491,0.00000627,-0.00001842,-0.00002625,-0.00000860
 ,0.00000093,0.00000434,0.00000324,0.00000867,0.00000528,0.00001166,0.0
 0001181,-0.00000218,-0.00001907,0.00000334,-0.00007045,-0.00009688,-0.
 00000342,0.00000659,0.00000449,-0.00000192,0.00000470,0.00000777,0.000
 04161,-0.00001174,-0.00000797,-0.00000985,-0.00009914,0.00006657,-0.00
 000394,0.00001175,0.00000171,-0.00001388,-0.00000160,0.00000392,0.0000
 4714,-0.00001292,0.00000127,0.00026126,-0.00015698,-0.00003757,0.00030
 597,0.00057333,0.00055979,-0.00011252,0.00000312,-0.00000971,0.0000311
 9,-0.00002737,0.00003662,-0.00042984,0.00017596,0.00030791,0.00011584,
 -0.00001953,-0.00005779,0.00020704,0.00001709,0.00005317,-0.00033259,-
 0.00086811,-0.00012670,-0.00533745,-0.04387789,0.01702960,0.00603079,0
 .00052416,-0.01413033,-0.00932010,-0.00115215,0.03038969,0.00226451,0.
 04714481,0.00046105,-0.00021158,-0.00027233,0.00025956,-0.00155429,-0.
 00128101,-0.00035093,-0.00046446,0.00001281,0.00024954,-0.00016270,0.0
 0037227,0.00018041,-0.00005862,-0.00004721,-0.00000246,0.00013092,0.00
 019580,-0.00015711,0.00003604,-0.00005280,0.00011699,-0.00004947,0.000
 05776,0.00000396,0.00003918,-0.00003390,-0.00000244,-0.00000416,-0.000
 00027,-0.00000340,-0.00000160,0.00000595,-0.00000002,0.00000030,0.0000
 0025,-0.00000407,0.00000236,-0.00000041,-0.00000010,-0.00000015,-0.000
 00011,0.00000017,-0.00000013,0.00000029,0.00000014,0.,-0.00000013,0.00
 000005,-0.00000024,-0.00000039,0.00000007,0.00000028,0.00000022,-0.000
 00258,-0.00000047,0.00000142,0.00000023,0.00000029,0.00000012,-0.00000
 046,-0.00000008,-0.00000050,0.00000008,-0.00000095,0.00000029,0.000000
 71,0.00000047,-0.00000021,0.00000743,-0.00000055,0.00000345,0.00000341
 ,-0.00000302,0.00000198,-0.00000705,0.00000139,-0.00000485,-0.00000122
 ,-0.00000669,0.00000603,0.00000379,-0.00000250,0.00000271,0.00000101,0
 .00000084,-0.00000017,0.00000024,0.00000084,-0.00000069,0.00112367,0.0
 0104041,-0.00003998,0.00002054,-0.00000792,-0.00003395,-0.00000111,-0.
 00002122,-0.00000653,0.00000544,0.00000931,0.00000570,0.00000256,-0.00
 000247,0.00000528,-0.00000855,-0.00003391,-0.00001627,0.00000050,0.000
 00134,0.00000485,0.00000853,0.00000445,0.00001663,0.00000954,-0.000004
 00,-0.00002024,-0.00000723,-0.00003853,-0.00005745,-0.00000081,0.00000
 759,0.00000515,-0.00000637,-0.00000064,0.00000793,0.00002041,-0.000013
 22,-0.00000679,0.00003435,0.00006283,-0.00003075,0.00002119,0.00001071
 ,0.00002448,0.00001671,-0.00002823,0.00001224,-0.00001736,0.00001657,-
 0.00001824,-0.00074999,0.00021638,-0.00081924,-0.00147366,0.00047924,-
 0.00166757,-0.00002925,-0.00003885,0.00003122,0.00007222,0.00000640,0.
 00003587,0.00018521,-0.00058064,0.00001626,-0.00011830,-0.00001141,-0.
 00000261,-0.00021311,-0.00002028,-0.00001209,-0.00067815,-0.00004871,-
 0.00002426,0.07975603,0.01642306,-0.30134100,0.00562816,0.00227057,-0.
 01462944,0.00150111,-0.00028383,-0.00744864,-0.08585930,-0.01710625,0.
 32704311\\-0.00000453,-0.00000283,0.00000178,-0.00000196,-0.00000532,0
 .00000083,0.00000143,-0.00000207,-0.00000095,-0.00000089,0.00000493,-0
 .00000189,0.00000324,0.00000236,0.,-0.00000012,-0.00000169,-0.00000567
 ,0.00000481,0.00000098,0.00000111,-0.00000715,0.00000819,0.00000309,0.
 00000119,-0.00000033,-0.00000105,0.00000218,-0.00000638,-0.00000220,-0
 .00000099,0.00000192,-0.00000239,-0.00000103,0.00000377,0.00000059,0.0
 0000259,0.00000438,0.00000038,0.00000009,0.00000148,0.00000003,-0.0000
 0020,0.00000399,0.00000083,-0.00000016,0.00000394,0.00000112,-0.000001
 34,0.00000210,-0.00000008,0.00000014,0.00000098,0.00000024,0.00000013,
 -0.00000069,-0.00000070,-0.00000177,0.00000328,0.00000101,-0.00000085,
 0.00000285,0.00000055,-0.00000065,0.00000190,0.00000052,-0.00000077,0.
 00000279,0.00000055,-0.00000143,0.00000274,0.00000256,0.00000120,0.000
 00296,0.00000080,0.00000286,0.00000385,-0.00000111,0.00000121,-0.00000
 113,-0.00000062,0.00000149,0.00000215,0.00000091,0.00000088,0.00000204
 ,0.00000080,0.00000009,0.00000212,0.00000055,0.00000431,-0.00000172,0.
 00000011,0.00000218,-0.00000073,0.00000183,0.00000210,-0.00000145,-0.0
 0000034,0.00000136,-0.00000237,-0.00000098,0.00000205,-0.00000124,-0.0
 0000057,-0.00000183,-0.00000179,0.00000431,0.00000045,-0.00000058,0.00
 000018,0.00000059,-0.00000138,-0.00000059,0.00000207,-0.00000168,0.000
 00033,0.00000692,-0.00000132,-0.00000273,0.00000273,0.00000328,0.00000
 726,-0.00000023,-0.00000037,0.00000095,0.00000023,-0.00000008,0.000000
 43,-0.00000478,-0.00000282,-0.00000316,-0.00000110,0.00000052,0.000000
 20,-0.00000104,0.00000036,-0.00000052,-0.00000089,-0.00000184,-0.00000
 133,-0.00000107,-0.00000255,-0.00000088,-0.00000106,-0.00000259,-0.000
 00070,-0.00000167,-0.00000145,-0.00000093,-0.00000019,-0.00000148,-0.0
 0000037,-0.00000170,-0.00000598,0.00000055,-0.00000271,-0.00000108,-0.
 00000074,-0.00000211,-0.00000176,-0.00000028,-0.00000249,-0.00000255,-
 0.00000064,-0.00000052,-0.00000290,-0.00000075,-0.00000060,-0.00000318
 ,-0.00000034,-0.00000103,-0.00000222,-0.00000179,0.00000032,-0.0000023
 1,-0.00000009\\\@


 There are more things in heaven and earth, Horatio,
 than are dreamt of in your philosophy.
                   -- Hamlet, Act I, Scene 5
 Job cpu time:       8 days  8 hours 25 minutes 24.7 seconds.
 File lengths (MBytes):  RWF=   5056 Int=      0 D2E=      0 Chk=     56 Scr=      1
 Normal termination of Gaussian 09 at Fri Oct  8 08:52:57 2021.
