 Entering Gaussian System, Link 0=g09
 Input=reag_NHC31_et.gjf
 Output=reag_NHC31_et.log
 Initial command:
 /usr/local/gqt/g09/l1.exe "/usr/local/gqt/lixogaussian/Gau-18241.inp" -scrdir="/usr/local/gqt/lixogaussian/"
 Entering Link 1 = /usr/local/gqt/g09/l1.exe PID=     18243.
  
 Copyright (c) 1988,1990,1992,1993,1995,1998,2003,2009,2013,
            Gaussian, Inc.  All Rights Reserved.
  
 This is part of the Gaussian(R) 09 program.  It is based on
 the Gaussian(R) 03 system (copyright 2003, Gaussian, Inc.),
 the Gaussian(R) 98 system (copyright 1998, Gaussian, Inc.),
 the Gaussian(R) 94 system (copyright 1995, Gaussian, Inc.),
 the Gaussian 92(TM) system (copyright 1992, Gaussian, Inc.),
 the Gaussian 90(TM) system (copyright 1990, Gaussian, Inc.),
 the Gaussian 88(TM) system (copyright 1988, Gaussian, Inc.),
 the Gaussian 86(TM) system (copyright 1986, Carnegie Mellon
 University), and the Gaussian 82(TM) system (copyright 1983,
 Carnegie Mellon University). Gaussian is a federally registered
 trademark of Gaussian, Inc.
  
 This software contains proprietary and confidential information,
 including trade secrets, belonging to Gaussian, Inc.
  
 This software is provided under written license and may be
 used, copied, transmitted, or stored only in accord with that
 written license.
  
 The following legend is applicable only to US Government
 contracts under FAR:
  
                    RESTRICTED RIGHTS LEGEND
  
 Use, reproduction and disclosure by the US Government is
 subject to restrictions as set forth in subparagraphs (a)
 and (c) of the Commercial Computer Software - Restricted
 Rights clause in FAR 52.227-19.
  
 Gaussian, Inc.
 340 Quinnipiac St., Bldg. 40, Wallingford CT 06492
  
  
 ---------------------------------------------------------------
 Warning -- This program may not be used in any manner that
 competes with the business of Gaussian, Inc. or will provide
 assistance to any competitor of Gaussian, Inc.  The licensee
 of this program is prohibited from giving any competitor of
 Gaussian, Inc. access to this program.  By using this program,
 the user acknowledges that Gaussian, Inc. is engaged in the
 business of creating and licensing software in the field of
 computational chemistry and represents and warrants to the
 licensee that it is not a competitor of Gaussian, Inc. and that
 it will not use this program in any manner prohibited above.
 ---------------------------------------------------------------
  

 Cite this work as:
 Gaussian 09, Revision D.01,
 M. J. Frisch, G. W. Trucks, H. B. Schlegel, G. E. Scuseria, 
 M. A. Robb, J. R. Cheeseman, G. Scalmani, V. Barone, B. Mennucci, 
 G. A. Petersson, H. Nakatsuji, M. Caricato, X. Li, H. P. Hratchian, 
 A. F. Izmaylov, J. Bloino, G. Zheng, J. L. Sonnenberg, M. Hada, 
 M. Ehara, K. Toyota, R. Fukuda, J. Hasegawa, M. Ishida, T. Nakajima, 
 Y. Honda, O. Kitao, H. Nakai, T. Vreven, J. A. Montgomery, Jr., 
 J. E. Peralta, F. Ogliaro, M. Bearpark, J. J. Heyd, E. Brothers, 
 K. N. Kudin, V. N. Staroverov, T. Keith, R. Kobayashi, J. Normand, 
 K. Raghavachari, A. Rendell, J. C. Burant, S. S. Iyengar, J. Tomasi, 
 M. Cossi, N. Rega, J. M. Millam, M. Klene, J. E. Knox, J. B. Cross, 
 V. Bakken, C. Adamo, J. Jaramillo, R. Gomperts, R. E. Stratmann, 
 O. Yazyev, A. J. Austin, R. Cammi, C. Pomelli, J. W. Ochterski, 
 R. L. Martin, K. Morokuma, V. G. Zakrzewski, G. A. Voth, 
 P. Salvador, J. J. Dannenberg, S. Dapprich, A. D. Daniels, 
 O. Farkas, J. B. Foresman, J. V. Ortiz, J. Cioslowski, 
 and D. J. Fox, Gaussian, Inc., Wallingford CT, 2013.
 
 ******************************************
 Gaussian 09:  ES64L-G09RevD.01 24-Apr-2013
                16-Dec-2021 
 ******************************************
 %nprocshared=16
 Will use up to   16 processors via shared memory.
 %mem=50GB
 %chk=reag_NHC31_et.chk
 ------------------------------------------------------------
 #p opt freq n12sx/6-311+g(d,p) scrf=(iefpcm,solvent=ethanol)
 ------------------------------------------------------------
 1/14=-1,18=20,19=15,26=3,38=1/1,3;
 2/9=110,12=2,17=6,18=5,40=1/2;
 3/5=4,6=6,7=111,11=2,16=1,25=1,30=1,70=2201,71=1,72=4,74=-69/1,2,3;
 4//1;
 5/5=2,38=5,53=4/2;
 6/7=2,8=2,9=2,10=2,28=1/1;
 7//1,2,3,16;
 1/14=-1,18=20,19=15,26=3/3(2);
 2/9=110/2;
 99//99;
 2/9=110/2;
 3/5=4,6=6,7=111,11=2,16=1,25=1,30=1,70=2205,71=1,72=4,74=-69/1,2,3;
 4/5=5,16=3,69=1/1;
 5/5=2,38=5,53=4/2;
 7//1,2,3,16;
 1/14=-1,18=20,19=15,26=3/3(-5);
 2/9=110/2;
 6/7=2,8=2,9=2,10=2,19=2,28=1/1;
 99/9=1/99;
 Leave Link    1 at Thu Dec 16 23:26:42 2021, MaxMem=  6710886400 cpu:         0.7
 (Enter /usr/local/gqt/g09/l101.exe)
 -----
 TITLE
 -----
 Symbolic Z-matrix:
 Charge =  0 Multiplicity = 1
 1                    -0.37611   0.3208    0.52245 
 8                    -1.34694   0.44768   0.69052 
 6                    -1.55721   0.66336   2.06538 
 1                    -1.1507   -0.16765   2.65162 
 1                    -1.03804   1.56948   2.39665 
 6                    -6.14386   0.77042  -0.5488 
 6                    -3.84375  -0.8129   -1.26472 
 6                    -5.02634   1.34402  -1.40374 
 1                    -6.48255   1.46246   0.21777 
 1                    -7.01598   0.55572  -1.17087 
 6                    -4.39464   0.22405  -2.20794 
 1                    -3.52774  -1.7123   -1.78378 
 1                    -3.0042   -0.41906  -0.6933 
 1                    -5.42273   2.12324  -2.05081 
 1                    -4.26984   1.80868  -0.77037 
 1                    -3.57537   0.58976  -2.82462 
 1                    -5.13126  -0.22269  -2.87744 
 8                    -4.8192   -1.27338  -0.29999 
 8                    -6.50741  -0.95618   1.04573 
 6                    -5.83108  -0.53148   0.13849 
 6                    -3.03571   0.7987    2.34108 
 1                    -3.21477   0.97079   3.40129 
 1                    -3.45544   1.63641   1.78558 
 1                    -3.56591  -0.10598   2.0484 
 7                     3.55602   0.4988   -0.4189 
 7                     3.49011  -0.68026   0.07744 
 7                     2.26072  -1.06475   0.41443 
 6                     1.44055  -0.04647   0.11387 
 7                     2.30225   0.89499  -0.39961 
 6                     1.96624   2.21237  -0.89409 
 6                     4.6592   -1.51493   0.25232 
 1                     0.89591   2.33092  -0.78734 
 1                     2.48097   2.97032  -0.31246 
 1                     2.24436   2.29924  -1.93948 
 1                     5.52326  -0.96686  -0.09949 
 1                     4.76413  -1.75385   1.30483 
 1                     4.52787  -2.42547  -0.32171 
 
 Add virtual bond connecting atoms C28        and H1         Dist= 3.59D+00.
 Add virtual bond connecting atoms H13        and O2         Dist= 4.40D+00.
 NAtoms=     37 NQM=       37 NQMF=       0 NMMI=      0 NMMIF=      0
                NMic=       0 NMicF=      0.
                    Isotopes and Nuclear Properties:
 (Nuclear quadrupole moments (NQMom) in fm**2, nuclear magnetic moments (NMagM)
  in nuclear magnetons)

  Atom         1           2           3           4           5           6           7           8           9          10
 IAtWgt=           1          16          12           1           1          12          12          12           1           1
 AtmWgt=   1.0078250  15.9949146  12.0000000   1.0078250   1.0078250  12.0000000  12.0000000  12.0000000   1.0078250   1.0078250
 NucSpn=           1           0           0           1           1           0           0           0           1           1
 AtZEff=   0.0000000   0.0000000   0.0000000   0.0000000   0.0000000   0.0000000   0.0000000   0.0000000   0.0000000   0.0000000
 NQMom=    0.0000000   0.0000000   0.0000000   0.0000000   0.0000000   0.0000000   0.0000000   0.0000000   0.0000000   0.0000000
 NMagM=    2.7928460   0.0000000   0.0000000   2.7928460   2.7928460   0.0000000   0.0000000   0.0000000   2.7928460   2.7928460
 AtZNuc=   1.0000000   8.0000000   6.0000000   1.0000000   1.0000000   6.0000000   6.0000000   6.0000000   1.0000000   1.0000000

  Atom        11          12          13          14          15          16          17          18          19          20
 IAtWgt=          12           1           1           1           1           1           1          16          16          12
 AtmWgt=  12.0000000   1.0078250   1.0078250   1.0078250   1.0078250   1.0078250   1.0078250  15.9949146  15.9949146  12.0000000
 NucSpn=           0           1           1           1           1           1           1           0           0           0
 AtZEff=   0.0000000   0.0000000   0.0000000   0.0000000   0.0000000   0.0000000   0.0000000   0.0000000   0.0000000   0.0000000
 NQMom=    0.0000000   0.0000000   0.0000000   0.0000000   0.0000000   0.0000000   0.0000000   0.0000000   0.0000000   0.0000000
 NMagM=    0.0000000   2.7928460   2.7928460   2.7928460   2.7928460   2.7928460   2.7928460   0.0000000   0.0000000   0.0000000
 AtZNuc=   6.0000000   1.0000000   1.0000000   1.0000000   1.0000000   1.0000000   1.0000000   8.0000000   8.0000000   6.0000000

  Atom        21          22          23          24          25          26          27          28          29          30
 IAtWgt=          12           1           1           1          14          14          14          12          14          12
 AtmWgt=  12.0000000   1.0078250   1.0078250   1.0078250  14.0030740  14.0030740  14.0030740  12.0000000  14.0030740  12.0000000
 NucSpn=           0           1           1           1           2           2           2           0           2           0
 AtZEff=   0.0000000   0.0000000   0.0000000   0.0000000   0.0000000   0.0000000   0.0000000   0.0000000   0.0000000   0.0000000
 NQMom=    0.0000000   0.0000000   0.0000000   0.0000000   2.0440000   2.0440000   2.0440000   0.0000000   2.0440000   0.0000000
 NMagM=    0.0000000   2.7928460   2.7928460   2.7928460   0.4037610   0.4037610   0.4037610   0.0000000   0.4037610   0.0000000
 AtZNuc=   6.0000000   1.0000000   1.0000000   1.0000000   7.0000000   7.0000000   7.0000000   6.0000000   7.0000000   6.0000000

  Atom        31          32          33          34          35          36          37
 IAtWgt=          12           1           1           1           1           1           1
 AtmWgt=  12.0000000   1.0078250   1.0078250   1.0078250   1.0078250   1.0078250   1.0078250
 NucSpn=           0           1           1           1           1           1           1
 AtZEff=   0.0000000   0.0000000   0.0000000   0.0000000   0.0000000   0.0000000   0.0000000
 NQMom=    0.0000000   0.0000000   0.0000000   0.0000000   0.0000000   0.0000000   0.0000000
 NMagM=    0.0000000   2.7928460   2.7928460   2.7928460   2.7928460   2.7928460   2.7928460
 AtZNuc=   6.0000000   1.0000000   1.0000000   1.0000000   1.0000000   1.0000000   1.0000000
 Leave Link  101 at Thu Dec 16 23:26:42 2021, MaxMem=  6710886400 cpu:         6.9
 (Enter /usr/local/gqt/g09/l103.exe)

 GradGradGradGradGradGradGradGradGradGradGradGradGradGradGradGradGradGrad
 Berny optimization.
 Initialization pass.
                           ----------------------------
                           !    Initial Parameters    !
                           ! (Angstroms and Degrees)  !
 --------------------------                            --------------------------
 ! Name  Definition              Value          Derivative Info.                !
 --------------------------------------------------------------------------------
 ! R1    R(1,2)                  0.9934         estimate D2E/DX2                !
 ! R2    R(1,28)                 1.8979         estimate D2E/DX2                !
 ! R3    R(2,3)                  1.4075         estimate D2E/DX2                !
 ! R4    R(2,13)                 2.3265         estimate D2E/DX2                !
 ! R5    R(3,4)                  1.0952         estimate D2E/DX2                !
 ! R6    R(3,5)                  1.0956         estimate D2E/DX2                !
 ! R7    R(3,21)                 1.5101         estimate D2E/DX2                !
 ! R8    R(6,8)                  1.5195         estimate D2E/DX2                !
 ! R9    R(6,9)                  1.0869         estimate D2E/DX2                !
 ! R10   R(6,10)                 1.0925         estimate D2E/DX2                !
 ! R11   R(6,20)                 1.505          estimate D2E/DX2                !
 ! R12   R(7,11)                 1.5061         estimate D2E/DX2                !
 ! R13   R(7,12)                 1.0855         estimate D2E/DX2                !
 ! R14   R(7,13)                 1.0893         estimate D2E/DX2                !
 ! R15   R(7,18)                 1.4472         estimate D2E/DX2                !
 ! R16   R(8,11)                 1.5166         estimate D2E/DX2                !
 ! R17   R(8,14)                 1.0877         estimate D2E/DX2                !
 ! R18   R(8,15)                 1.0906         estimate D2E/DX2                !
 ! R19   R(11,16)                1.0887         estimate D2E/DX2                !
 ! R20   R(11,17)                1.0911         estimate D2E/DX2                !
 ! R21   R(18,20)                1.3291         estimate D2E/DX2                !
 ! R22   R(19,20)                1.2087         estimate D2E/DX2                !
 ! R23   R(21,22)                1.0889         estimate D2E/DX2                !
 ! R24   R(21,23)                1.0893         estimate D2E/DX2                !
 ! R25   R(21,24)                1.0887         estimate D2E/DX2                !
 ! R26   R(25,26)                1.281          estimate D2E/DX2                !
 ! R27   R(25,29)                1.315          estimate D2E/DX2                !
 ! R28   R(26,27)                1.3315         estimate D2E/DX2                !
 ! R29   R(26,31)                1.4471         estimate D2E/DX2                !
 ! R30   R(27,28)                1.3416         estimate D2E/DX2                !
 ! R31   R(28,29)                1.3757         estimate D2E/DX2                !
 ! R32   R(29,30)                1.4467         estimate D2E/DX2                !
 ! R33   R(30,32)                1.0822         estimate D2E/DX2                !
 ! R34   R(30,33)                1.0852         estimate D2E/DX2                !
 ! R35   R(30,34)                1.0852         estimate D2E/DX2                !
 ! R36   R(31,35)                1.082          estimate D2E/DX2                !
 ! R37   R(31,36)                1.0844         estimate D2E/DX2                !
 ! R38   R(31,37)                1.0844         estimate D2E/DX2                !
 ! A1    A(1,2,3)              109.3192         estimate D2E/DX2                !
 ! A2    A(1,2,13)             123.2253         estimate D2E/DX2                !
 ! A3    A(3,2,13)             122.12           estimate D2E/DX2                !
 ! A4    A(2,3,4)              110.5572         estimate D2E/DX2                !
 ! A5    A(2,3,5)              110.5673         estimate D2E/DX2                !
 ! A6    A(2,3,21)             109.7759         estimate D2E/DX2                !
 ! A7    A(4,3,5)              106.8467         estimate D2E/DX2                !
 ! A8    A(4,3,21)             109.4928         estimate D2E/DX2                !
 ! A9    A(5,3,21)             109.5506         estimate D2E/DX2                !
 ! A10   A(8,6,9)              112.6849         estimate D2E/DX2                !
 ! A11   A(8,6,10)             109.9318         estimate D2E/DX2                !
 ! A12   A(8,6,20)             115.5084         estimate D2E/DX2                !
 ! A13   A(9,6,10)             106.1388         estimate D2E/DX2                !
 ! A14   A(9,6,20)             107.066          estimate D2E/DX2                !
 ! A15   A(10,6,20)            104.8276         estimate D2E/DX2                !
 ! A16   A(11,7,12)            112.1782         estimate D2E/DX2                !
 ! A17   A(11,7,13)            111.1929         estimate D2E/DX2                !
 ! A18   A(11,7,18)            112.9556         estimate D2E/DX2                !
 ! A19   A(12,7,13)            109.0298         estimate D2E/DX2                !
 ! A20   A(12,7,18)            104.5587         estimate D2E/DX2                !
 ! A21   A(13,7,18)            106.5508         estimate D2E/DX2                !
 ! A22   A(6,8,11)             109.0215         estimate D2E/DX2                !
 ! A23   A(6,8,14)             109.7032         estimate D2E/DX2                !
 ! A24   A(6,8,15)             110.1354         estimate D2E/DX2                !
 ! A25   A(11,8,14)            111.4316         estimate D2E/DX2                !
 ! A26   A(11,8,15)            109.491          estimate D2E/DX2                !
 ! A27   A(14,8,15)            107.0418         estimate D2E/DX2                !
 ! A28   A(7,11,8)             109.19           estimate D2E/DX2                !
 ! A29   A(7,11,16)            108.1054         estimate D2E/DX2                !
 ! A30   A(7,11,17)            110.446          estimate D2E/DX2                !
 ! A31   A(8,11,16)            111.4537         estimate D2E/DX2                !
 ! A32   A(8,11,17)            110.2755         estimate D2E/DX2                !
 ! A33   A(16,11,17)           107.3384         estimate D2E/DX2                !
 ! A34   A(7,18,20)            123.7432         estimate D2E/DX2                !
 ! A35   A(6,20,18)            119.3678         estimate D2E/DX2                !
 ! A36   A(6,20,19)            122.035          estimate D2E/DX2                !
 ! A37   A(18,20,19)           118.5218         estimate D2E/DX2                !
 ! A38   A(3,21,22)            110.6665         estimate D2E/DX2                !
 ! A39   A(3,21,23)            110.6772         estimate D2E/DX2                !
 ! A40   A(3,21,24)            110.6881         estimate D2E/DX2                !
 ! A41   A(22,21,23)           108.1573         estimate D2E/DX2                !
 ! A42   A(22,21,24)           108.2394         estimate D2E/DX2                !
 ! A43   A(23,21,24)           108.3192         estimate D2E/DX2                !
 ! A44   A(26,25,29)           102.8601         estimate D2E/DX2                !
 ! A45   A(25,26,27)           114.2912         estimate D2E/DX2                !
 ! A46   A(25,26,31)           122.4232         estimate D2E/DX2                !
 ! A47   A(27,26,31)           123.2856         estimate D2E/DX2                !
 ! A48   A(26,27,28)           106.7732         estimate D2E/DX2                !
 ! A49   A(1,28,27)            133.1418         estimate D2E/DX2                !
 ! A50   A(1,28,29)            123.1942         estimate D2E/DX2                !
 ! A51   A(27,28,29)           102.7163         estimate D2E/DX2                !
 ! A52   A(25,29,28)           113.3592         estimate D2E/DX2                !
 ! A53   A(25,29,30)           119.3919         estimate D2E/DX2                !
 ! A54   A(28,29,30)           127.2489         estimate D2E/DX2                !
 ! A55   A(29,30,32)           107.2035         estimate D2E/DX2                !
 ! A56   A(29,30,33)           110.0381         estimate D2E/DX2                !
 ! A57   A(29,30,34)           110.0371         estimate D2E/DX2                !
 ! A58   A(32,30,33)           109.8604         estimate D2E/DX2                !
 ! A59   A(32,30,34)           109.8606         estimate D2E/DX2                !
 ! A60   A(33,30,34)           109.8046         estimate D2E/DX2                !
 ! A61   A(26,31,35)           108.2826         estimate D2E/DX2                !
 ! A62   A(26,31,36)           108.8179         estimate D2E/DX2                !
 ! A63   A(26,31,37)           108.8148         estimate D2E/DX2                !
 ! A64   A(35,31,36)           110.4828         estimate D2E/DX2                !
 ! A65   A(35,31,37)           110.4827         estimate D2E/DX2                !
 ! A66   A(36,31,37)           109.9088         estimate D2E/DX2                !
 ! A67   L(2,1,28,32,-1)       182.2734         estimate D2E/DX2                !
 ! A68   L(2,13,7,9,-1)        175.6776         estimate D2E/DX2                !
 ! A69   L(2,1,28,32,-2)       184.6078         estimate D2E/DX2                !
 ! A70   L(2,13,7,9,-2)        183.2122         estimate D2E/DX2                !
 ! D1    D(1,2,7,11)           -99.5938         estimate D2E/DX2                !
 ! D2    D(1,2,7,12)            26.9466         estimate D2E/DX2                !
 ! D3    D(1,2,7,18)           138.6817         estimate D2E/DX2                !
 ! D4    D(3,2,7,11)           109.188          estimate D2E/DX2                !
 ! D5    D(3,2,7,12)          -124.2716         estimate D2E/DX2                !
 ! D6    D(3,2,7,18)           -12.5365         estimate D2E/DX2                !
 ! D7    D(3,2,28,27)           67.9582         estimate D2E/DX2                !
 ! D8    D(3,2,28,29)         -101.0858         estimate D2E/DX2                !
 ! D9    D(13,2,28,27)         -85.0665         estimate D2E/DX2                !
 ! D10   D(13,2,28,29)         105.8896         estimate D2E/DX2                !
 ! D11   D(1,2,3,4)            -56.6894         estimate D2E/DX2                !
 ! D12   D(1,2,3,5)             61.4301         estimate D2E/DX2                !
 ! D13   D(1,2,3,21)          -177.5903         estimate D2E/DX2                !
 ! D14   D(13,2,3,4)            98.221          estimate D2E/DX2                !
 ! D15   D(13,2,3,5)          -143.6595         estimate D2E/DX2                !
 ! D16   D(13,2,3,21)          -22.6799         estimate D2E/DX2                !
 ! D17   D(2,3,21,22)         -179.74           estimate D2E/DX2                !
 ! D18   D(2,3,21,23)          -59.849          estimate D2E/DX2                !
 ! D19   D(2,3,21,24)           60.259          estimate D2E/DX2                !
 ! D20   D(4,3,21,22)           58.719          estimate D2E/DX2                !
 ! D21   D(4,3,21,23)          178.61           estimate D2E/DX2                !
 ! D22   D(4,3,21,24)          -61.282          estimate D2E/DX2                !
 ! D23   D(5,3,21,22)          -58.1494         estimate D2E/DX2                !
 ! D24   D(5,3,21,23)           61.7416         estimate D2E/DX2                !
 ! D25   D(5,3,21,24)         -178.1504         estimate D2E/DX2                !
 ! D26   D(9,6,8,11)           166.5411         estimate D2E/DX2                !
 ! D27   D(9,6,8,14)           -71.1835         estimate D2E/DX2                !
 ! D28   D(9,6,8,15)            46.3884         estimate D2E/DX2                !
 ! D29   D(10,6,8,11)          -75.2918         estimate D2E/DX2                !
 ! D30   D(10,6,8,14)           46.9836         estimate D2E/DX2                !
 ! D31   D(10,6,8,15)          164.5555         estimate D2E/DX2                !
 ! D32   D(20,6,8,11)           43.0445         estimate D2E/DX2                !
 ! D33   D(20,6,8,14)          165.3199         estimate D2E/DX2                !
 ! D34   D(20,6,8,15)          -77.1082         estimate D2E/DX2                !
 ! D35   D(8,6,20,18)          -18.4715         estimate D2E/DX2                !
 ! D36   D(8,6,20,19)          164.7348         estimate D2E/DX2                !
 ! D37   D(9,6,20,18)         -144.8761         estimate D2E/DX2                !
 ! D38   D(9,6,20,19)           38.3302         estimate D2E/DX2                !
 ! D39   D(10,6,20,18)         102.6629         estimate D2E/DX2                !
 ! D40   D(10,6,20,19)         -74.1308         estimate D2E/DX2                !
 ! D41   D(12,7,11,8)          170.5304         estimate D2E/DX2                !
 ! D42   D(12,7,11,16)         -68.0544         estimate D2E/DX2                !
 ! D43   D(12,7,11,17)          49.1078         estimate D2E/DX2                !
 ! D44   D(13,7,11,8)          -67.0775         estimate D2E/DX2                !
 ! D45   D(13,7,11,16)          54.3377         estimate D2E/DX2                !
 ! D46   D(13,7,11,17)         171.5            estimate D2E/DX2                !
 ! D47   D(18,7,11,8)           52.6604         estimate D2E/DX2                !
 ! D48   D(18,7,11,16)         174.0756         estimate D2E/DX2                !
 ! D49   D(18,7,11,17)         -68.7621         estimate D2E/DX2                !
 ! D50   D(11,7,18,20)         -28.5133         estimate D2E/DX2                !
 ! D51   D(12,7,18,20)        -150.7595         estimate D2E/DX2                !
 ! D52   D(13,7,18,20)          93.8606         estimate D2E/DX2                !
 ! D53   D(6,8,11,7)           -59.7058         estimate D2E/DX2                !
 ! D54   D(6,8,11,16)         -179.0673         estimate D2E/DX2                !
 ! D55   D(6,8,11,17)           61.8201         estimate D2E/DX2                !
 ! D56   D(14,8,11,7)          179.0668         estimate D2E/DX2                !
 ! D57   D(14,8,11,16)          59.7053         estimate D2E/DX2                !
 ! D58   D(14,8,11,17)         -59.4073         estimate D2E/DX2                !
 ! D59   D(15,8,11,7)           60.8434         estimate D2E/DX2                !
 ! D60   D(15,8,11,16)         -58.5181         estimate D2E/DX2                !
 ! D61   D(15,8,11,17)        -177.6307         estimate D2E/DX2                !
 ! D62   D(7,18,20,6)           10.7302         estimate D2E/DX2                !
 ! D63   D(7,18,20,19)        -172.3632         estimate D2E/DX2                !
 ! D64   D(29,25,26,27)          0.0439         estimate D2E/DX2                !
 ! D65   D(29,25,26,31)       -179.965          estimate D2E/DX2                !
 ! D66   D(26,25,29,28)         -0.0344         estimate D2E/DX2                !
 ! D67   D(26,25,29,30)        179.9858         estimate D2E/DX2                !
 ! D68   D(25,26,27,28)         -0.0377         estimate D2E/DX2                !
 ! D69   D(31,26,27,28)        179.9712         estimate D2E/DX2                !
 ! D70   D(25,26,31,35)         -0.0061         estimate D2E/DX2                !
 ! D71   D(25,26,31,36)        120.1214         estimate D2E/DX2                !
 ! D72   D(25,26,31,37)       -120.1317         estimate D2E/DX2                !
 ! D73   D(27,26,31,35)        179.9842         estimate D2E/DX2                !
 ! D74   D(27,26,31,36)        -59.8882         estimate D2E/DX2                !
 ! D75   D(27,26,31,37)         59.8586         estimate D2E/DX2                !
 ! D76   D(26,27,28,1)        -168.6998         estimate D2E/DX2                !
 ! D77   D(26,27,28,29)          0.0133         estimate D2E/DX2                !
 ! D78   D(1,28,29,25)         170.1871         estimate D2E/DX2                !
 ! D79   D(1,28,29,30)          -9.835          estimate D2E/DX2                !
 ! D80   D(27,28,29,25)          0.0133         estimate D2E/DX2                !
 ! D81   D(27,28,29,30)        179.9912         estimate D2E/DX2                !
 ! D82   D(25,29,30,32)        179.9832         estimate D2E/DX2                !
 ! D83   D(25,29,30,33)        -60.5788         estimate D2E/DX2                !
 ! D84   D(25,29,30,34)         60.5455         estimate D2E/DX2                !
 ! D85   D(28,29,30,32)          0.0065         estimate D2E/DX2                !
 ! D86   D(28,29,30,33)        119.4444         estimate D2E/DX2                !
 ! D87   D(28,29,30,34)       -119.4312         estimate D2E/DX2                !
 --------------------------------------------------------------------------------
 Trust Radius=3.00D-01 FncErr=1.00D-07 GrdErr=1.00D-06
 Number of steps in this run=    205 maximum allowed number of steps=    222.
 GradGradGradGradGradGradGradGradGradGradGradGradGradGradGradGradGradGrad

 Leave Link  103 at Thu Dec 16 23:26:42 2021, MaxMem=  6710886400 cpu:         0.2
 (Enter /usr/local/gqt/g09/l202.exe)
                          Input orientation:                          
 ---------------------------------------------------------------------
 Center     Atomic      Atomic             Coordinates (Angstroms)
 Number     Number       Type             X           Y           Z
 ---------------------------------------------------------------------
      1          1           0       -0.376111    0.320802    0.522453
      2          8           0       -1.346941    0.447681    0.690519
      3          6           0       -1.557205    0.663364    2.065384
      4          1           0       -1.150697   -0.167650    2.651618
      5          1           0       -1.038038    1.569481    2.396654
      6          6           0       -6.143861    0.770418   -0.548801
      7          6           0       -3.843749   -0.812902   -1.264716
      8          6           0       -5.026342    1.344017   -1.403744
      9          1           0       -6.482547    1.462464    0.217769
     10          1           0       -7.015978    0.555717   -1.170870
     11          6           0       -4.394637    0.224052   -2.207936
     12          1           0       -3.527735   -1.712300   -1.783781
     13          1           0       -3.004195   -0.419060   -0.693297
     14          1           0       -5.422732    2.123236   -2.050814
     15          1           0       -4.269835    1.808679   -0.770373
     16          1           0       -3.575365    0.589758   -2.824624
     17          1           0       -5.131257   -0.222687   -2.877440
     18          8           0       -4.819203   -1.273381   -0.299988
     19          8           0       -6.507409   -0.956184    1.045729
     20          6           0       -5.831081   -0.531482    0.138487
     21          6           0       -3.035708    0.798700    2.341075
     22          1           0       -3.214773    0.970789    3.401288
     23          1           0       -3.455444    1.636405    1.785576
     24          1           0       -3.565914   -0.105984    2.048401
     25          7           0        3.556023    0.498802   -0.418898
     26          7           0        3.490115   -0.680259    0.077441
     27          7           0        2.260717   -1.064752    0.414434
     28          6           0        1.440553   -0.046472    0.113871
     29          7           0        2.302254    0.894989   -0.399609
     30          6           0        1.966242    2.212367   -0.894092
     31          6           0        4.659204   -1.514927    0.252324
     32          1           0        0.895910    2.330919   -0.787336
     33          1           0        2.480966    2.970320   -0.312458
     34          1           0        2.244359    2.299242   -1.939478
     35          1           0        5.523264   -0.966860   -0.099491
     36          1           0        4.764130   -1.753848    1.304830
     37          1           0        4.527868   -2.425471   -0.321709
 ---------------------------------------------------------------------
                    Distance matrix (angstroms):
                    1          2          3          4          5
     1  H    0.000000
     2  O    0.993406   0.000000
     3  C    1.973061   1.407474   0.000000
     4  H    2.317739   2.064716   1.095218   0.000000
     5  H    2.347334   2.065128   1.095592   1.759353   0.000000
     6  C    5.883594   4.964928   5.280420   6.004527   5.948415
     7  C    4.062483   3.412633   4.300838   4.796514   5.191666
     8  C    5.136327   4.327511   4.953085   5.809623   5.513658
     9  H    6.219709   5.256208   5.320830   6.083545   5.865294
    10  H    6.856410   5.967782   6.346899   7.038195   7.034964
    11  C    4.859314   4.211829   5.148328   5.855924   5.854843
    12  H    4.402835   3.942530   4.933846   5.263936   5.868962
    13  H    2.988690   2.326516   3.297839   3.832378   4.167477
    14  H    5.944649   5.189842   5.832376   6.753614   6.269941
    15  H    4.364203   3.539750   4.087986   5.034374   4.531202
    16  H    4.637940   4.164407   5.290611   6.036713   5.887243
    17  H    5.870781   5.244118   6.163639   6.813103   6.912480
    18  O    4.791544   3.999970   4.470637   4.836585   5.445269
    19  O    6.284690   5.359799   5.307273   5.647568   6.173978
    20  C    5.534484   4.622879   4.838037   5.324866   5.699704
    21  C    3.257181   2.387359   1.510064   2.140919   2.141933
    22  H    4.094896   3.333273   2.150972   2.473552   2.471011
    23  H    3.578908   2.656690   2.151375   3.052295   2.494343
    24  H    3.561672   2.659742   2.151069   2.490170   3.052642
    25  N    4.047160   5.027174   5.687165   5.659103   5.493550
    26  N    4.018440   5.004520   5.588620   5.331631   5.562756
    27  N    2.980653   3.921591   4.504281   4.177024   4.663707
    28  C    1.897919   2.889088   3.646755   3.628969   3.737086
    29  N    2.890247   3.834721   4.585331   4.728854   4.408126
    30  C    3.327347   4.074591   4.855161   5.286951   4.502001
    31  C    5.366308   6.333847   6.831975   6.428586   6.824243
    32  H    2.715540   3.280400   4.115401   4.717823   3.802333
    33  H    3.984961   4.692818   5.223314   5.641062   4.656719
    34  H    4.103924   4.821058   5.759072   6.220139   5.487142
    35  H    6.070216   7.058666   7.581383   7.262858   7.464212
    36  H    5.598068   6.524515   6.810333   6.270171   6.775083
    37  H    5.683629   6.617627   7.229608   6.795920   7.370784
                    6          7          8          9         10
     6  C    0.000000
     7  C    2.882699   0.000000
     8  C    1.519471   2.463768   0.000000
     9  H    1.086860   3.786596   2.182628   0.000000
    10  H    1.092545   3.456148   2.152742   1.742142   0.000000
    11  C    2.472050   1.506126   1.516607   3.431775   2.838474
    12  H    3.812241   1.085454   3.425102   4.776635   4.205639
    13  H    3.360542   1.089258   2.775293   4.058215   4.156040
    14  H    2.146203   3.425207   1.087661   2.589652   2.402051
    15  H    2.153846   2.701594   1.090584   2.447935   3.044932
    16  H    3.436449   2.114899   2.166366   4.297613   3.817575
    17  H    2.726570   2.146371   2.153450   3.774392   2.659035
    18  O    2.448212   1.447153   2.848150   3.243398   2.988286
    19  O    2.378203   3.528990   3.672111   2.556559   2.730897
    20  C    1.505038   2.449013   2.558042   2.099170   2.073740
    21  C    4.244149   4.031367   4.275940   4.102403   5.313694
    22  H    4.921677   5.034755   5.148729   4.588560   5.960375
    23  H    3.664265   3.931179   3.567208   3.413448   4.752459
    24  H    3.762891   3.399069   4.019037   3.783912   4.764923
    25  N    9.704556   7.562579   8.679937  10.104795  10.598864
    26  N    9.762691   7.456845   8.878155  10.201222  10.651944
    27  N    8.656362   6.336204   7.887279   9.103305   9.549669
    28  C    7.657008   5.514686   6.786556   8.066176   8.574736
    29  N    8.448351   6.437286   7.410683   8.824733   9.356249
    30  C    8.244526   6.560915   7.064702   8.554568   9.137909
    31  C   11.071170   8.665706  10.233568  11.532765  11.942484
    32  H    7.214599   5.707528   6.035479   7.497072   8.117661
    33  H    8.904104   7.431123   7.758572   9.104908   9.836622
    34  H    8.639069   6.870648   7.352725   9.028444   9.454336
    35  H   11.804314   9.440466  10.878209  12.253235  12.676699
    36  H   11.348662   9.032360  10.620098  11.747941  12.257003
    37  H   11.142310   8.577506  10.327767  11.689154  11.952780
                   11         12         13         14         15
    11  C    0.000000
    12  H    2.163535   0.000000
    13  H    2.154310   1.770796   0.000000
    14  H    2.165310   4.286450   3.762372   0.000000
    15  H    2.143177   3.738315   2.563319   1.751470   0.000000
    16  H    1.088693   2.526874   2.426212   2.522519   2.487570
    17  H    1.091064   2.446696   3.055067   2.504321   3.050939
    18  O    2.462281   2.015485   2.044214   3.868675   3.165780
    19  O    4.055009   4.178073   3.947812   4.499770   3.993674
    20  C    2.853052   3.224104   2.948862   3.465157   2.956327
    21  C    4.782302   4.854034   3.269762   5.171167   3.496317
    22  H    5.780406   5.846525   4.329163   5.994050   4.383831
    23  H    4.338774   4.894830   3.251672   4.338792   2.688082
    24  H    4.348806   4.155397   2.816106   5.022027   3.479501
    25  N    8.154088   7.545297   6.629799   9.269303   7.942504
    26  N    8.258937   7.333449   6.545099   9.582687   8.193316
    27  N    7.268533   6.225564   5.418790   8.676180   7.232460
    28  C    6.285969   5.573145   4.532783   7.516527   6.068938
    29  N    6.969114   6.534727   5.474612   7.994402   6.645648
    30  C    6.792670   6.810165   5.627608   7.479498   6.250354
    31  C    9.541958   8.438640   7.798898  10.962942   9.582275
    32  H    5.869147   6.075291   4.773055   6.447073   5.192104
    33  H    7.642561   7.758622   6.459097   8.136822   6.865305
    34  H    6.960945   7.030916   6.040650   7.669919   6.636428
    35  H   10.209240   9.236509   8.565644  11.539982  10.200907
    36  H   10.006729   8.848518   8.131485  11.404573   9.930287
    37  H    9.496785   8.218212   7.803572  11.076777   9.773889
                   16         17         18         19         20
    16  H    0.000000
    17  H    1.756034   0.000000
    18  O    3.375234   2.800820   0.000000
    19  O    5.095729   4.221737   2.182111   0.000000
    20  C    3.889147   3.111418   1.329124   1.208668   0.000000
    21  C    5.198012   5.715545   3.801261   4.100030   3.799327
    22  H    6.247975   6.672310   4.616269   4.483674   4.443845
    23  H    4.729037   5.292286   3.830962   4.072270   3.613348
    24  H    4.922450   5.169896   2.906627   3.221891   2.993293
    25  N    7.526785   9.057252   8.561495  10.273013   9.459910
    26  N    7.743121   9.125171   8.339005  10.048094   9.322583
    27  N    6.876682   8.135526   7.118932   8.791494   8.114045
    28  C    5.847989   7.222719   6.392271   8.053945   7.287832
    29  N    6.365553   7.914918   7.444924   9.117346   8.274992
    30  C    6.088450   7.761292   7.651514   9.252318   8.330257
    31  C    9.039106  10.359461   9.497557  11.208699  10.536897
    32  H    5.212916   6.871404   6.774290   8.305077   7.369050
    33  H    6.975471   8.644094   8.444029   9.902171   9.030842
    34  H    6.129845   7.851090   8.083654   9.803199   8.805888
    35  H    9.624680  11.035834  10.348951  12.085063  11.365181
    36  H    9.596461  10.851476   9.728647  11.302699  10.729074
    37  H    9.001032  10.231457   9.417830  11.216329  10.540721
                   21         22         23         24         25
    21  C    0.000000
    22  H    1.088913   0.000000
    23  H    1.089269   1.763942   0.000000
    24  H    1.088683   1.764382   1.765559   0.000000
    25  N    7.152504   7.788471   7.437373   7.561437   0.000000
    26  N    7.063832   7.663514   7.518341   7.348607   1.280969
    27  N    5.936036   6.560924   6.469218   6.126885   2.194758
    28  C    5.070667   5.789127   5.440355   5.367556   2.248640
    29  N    6.001204   6.700011   6.202887   6.436621   1.315019
    30  C    6.122439   6.843590   6.075116   6.681150   2.385271
    31  C    8.302254   8.837096   8.839076   8.536016   2.392206
    32  H    5.252835   6.024304   5.102598   5.821321   3.250938
    33  H    6.495450   7.087417   6.435996   7.183458   2.697309
    34  H    6.960881   7.751819   6.841282   7.446312   2.697074
    35  H    9.073565   9.610579   9.536649   9.379110   2.473909
    36  H    8.272048   8.688019   8.904287   8.523966   3.083049
    37  H    8.642533   9.238170   9.201780   8.746814   3.083067
                   26         27         28         29         30
    26  N    0.000000
    27  N    1.331472   0.000000
    28  C    2.145628   1.341604   0.000000
    29  N    2.029778   2.122493   1.375696   0.000000
    30  C    3.410770   3.540969   2.528773   1.446686   0.000000
    31  C    1.447074   2.445746   3.540515   3.433355   4.739096
    32  H    4.067546   3.851951   2.600154   2.046956   1.082156
    33  H    3.807510   4.105933   3.219511   2.084833   1.085234
    34  H    3.807532   4.105803   3.219429   2.084820   1.085232
    35  H    2.060860   3.304227   4.190605   3.732488   4.836453
    36  H    2.069346   2.744947   3.921694   3.997785   5.328629
    37  H    2.069303   2.744711   3.921847   3.998110   5.329079
                   31         32         33         34         35
    31  C    0.000000
    32  H    5.480311   0.000000
    33  H    5.018081   1.773907   0.000000
    34  H    5.018302   1.773908   1.775816   0.000000
    35  H    1.082013   5.723712   4.980193   4.980381   0.000000
    36  H    1.084371   6.002133   5.490557   5.770816   1.779818
    37  H    1.084368   6.002597   5.771001   5.491311   1.779815
                   36         37
    36  H    0.000000
    37  H    1.775536   0.000000
 Stoichiometry    C10H20N4O3
 Framework group  C1[X(C10H20N4O3)]
 Deg. of freedom   105
 Full point group                 C1      NOp   1
 Largest Abelian subgroup         C1      NOp   1
 Largest concise Abelian subgroup C1      NOp   1
                         Standard orientation:                         
 ---------------------------------------------------------------------
 Center     Atomic      Atomic             Coordinates (Angstroms)
 Number     Number       Type             X           Y           Z
 ---------------------------------------------------------------------
      1          1           0        1.010235   -0.377636    0.402880
      2          8           0        0.042946   -0.513471    0.583869
      3          6           0       -0.133400   -1.714971    1.295405
      4          1           0        0.296298   -2.556504    0.741613
      5          1           0        0.385463   -1.671146    2.259346
      6          6           0       -4.787611    0.622925    0.426267
      7          6           0       -2.491794    0.762849   -1.311431
      8          6           0       -3.698406    1.660574    0.640063
      9          1           0       -5.112826    0.159362    1.353958
     10          1           0       -5.673567    1.096092   -0.003674
     11          6           0       -3.077133    2.008167   -0.699077
     12          1           0       -2.180771    0.919043   -2.339575
     13          1           0       -1.641443    0.402356   -0.733997
     14          1           0       -4.119079    2.539591    1.123148
     15          1           0       -2.930136    1.266601    1.306335
     16          1           0       -2.277825    2.739156   -0.589470
     17          1           0       -3.826641    2.442884   -1.362159
     18          8           0       -3.437213   -0.330677   -1.379505
     19          8           0       -5.092671   -1.508557   -0.583472
     20          6           0       -4.444413   -0.490002   -0.527017
     21          6           0       -1.605434   -1.961672    1.524635
     22          1           0       -1.758393   -2.886524    2.078695
     23          1           0       -2.047617   -1.146541    2.096075
     24          1           0       -2.134338   -2.041087    0.576382
     25          7           0        4.914528    0.671546    0.215221
     26          7           0        4.873008   -0.229080   -0.694741
     27          7           0        3.656608   -0.718929   -0.925470
     28          6           0        2.819068   -0.084405   -0.091320
     29          7           0        3.657920    0.765981    0.591110
     30          6           0        3.296388    1.705099    1.630462
     31          6           0        6.054280   -0.669022   -1.405426
     32          1           0        2.228114    1.620290    1.781001
     33          1           0        3.818783    1.461408    2.549945
     34          1           0        3.546244    2.715198    1.322242
     35          1           0        6.903516   -0.114797   -1.028087
     36          1           0        6.188973   -1.731571   -1.235989
     37          1           0        5.916797   -0.478420   -2.464020
 ---------------------------------------------------------------------
 Rotational constants (GHZ):      0.8429032      0.1349783      0.1317604
 Leave Link  202 at Thu Dec 16 23:26:42 2021, MaxMem=  6710886400 cpu:         0.0
 (Enter /usr/local/gqt/g09/l301.exe)
 Standard basis: 6-311+G(d,p) (5D, 7F)
 Ernie: Thresh=  0.10000D-02 Tol=  0.10000D-05 Strict=F.
 There are   511 symmetry adapted cartesian basis functions of A   symmetry.
 There are   494 symmetry adapted basis functions of A   symmetry.
   494 basis functions,   772 primitive gaussians,   511 cartesian basis functions
    66 alpha electrons       66 beta electrons
       nuclear repulsion energy      1193.0808300015 Hartrees.
 IExCor= 5547 DFT=T Ex+Corr=N12SX ExCW=0 ScaHFX=  0.250000
 ScaDFX=  1.000000  1.000000  1.000000  1.000000 ScalE2=  1.000000  1.000000
 IRadAn=      0 IRanWt=     -1 IRanGd=            0 ICorTp=0 IEmpDi=  4
  HFx wShort=  0.110000 wLong=  0.000000 cFull=  0.000000 cShort=  1.000000 cLong=  0.000000
  DFx wShort=  0.110000 wLong=  0.000000 cFull=  0.000000 cShort=  1.000000 cLong=  0.000000
 NAtoms=   37 NActive=   37 NUniq=   37 SFac= 1.00D+00 NAtFMM=   60 NAOKFM=F Big=F
 Integral buffers will be    131072 words long.
 Raffenetti 2 integral format.
 Two-electron integral symmetry is turned on.
 ------------------------------------------------------------------------------
 Polarizable Continuum Model (PCM)
 =================================
 Model                : PCM (using non-symmetric T matrix).
 Atomic radii         : UFF (Universal Force Field).
 Polarization charges : Total charges.
 Charge compensation  : None.
 Solution method      : On-the-fly selection.
 Cavity type          : Scaled VdW (van der Waals Surface) (Alpha=1.100).
 Cavity algorithm     : GePol (No added spheres)
                        Default sphere list used, NSphG=   37.
                        Lebedev-Laikov grids with approx.  5.0 points / Ang**2.
                        Smoothing algorithm: Karplus/York (Gamma=1.0000).
                        Polarization charges: spherical gaussians, with
                                              point-specific exponents (IZeta= 3).
                        Self-potential: point-specific (ISelfS= 7).
                        Self-field    : sphere-specific E.n sum rule (ISelfD= 2).
 1st derivatives      : Analytical E(r).r(x)/FMM algorithm (CHGder, D1EAlg=3).
                        Cavity 1st derivative terms included.
 Solvent              : Ethanol, Eps=  24.852000 Eps(inf)=   1.852593
 ------------------------------------------------------------------------------
 GePol: Number of generator spheres                  =      37
 GePol: Total number of spheres                      =      37
 GePol: Number of exposed spheres                    =      37 (100.00%)
 GePol: Number of points                             =    2922
 GePol: Average weight of points                     =       0.13
 GePol: Minimum weight of points                     =   0.24D-09
 GePol: Maximum weight of points                     =    0.20577
 GePol: Number of points with low weight             =     214
 GePol: Fraction of low-weight points (<1% of avg)   =       7.32%
 GePol: Cavity surface area                          =    375.264 Ang**2
 GePol: Cavity volume                                =    376.327 Ang**3
 Leave Link  301 at Thu Dec 16 23:26:42 2021, MaxMem=  6710886400 cpu:         0.7
 (Enter /usr/local/gqt/g09/l302.exe)
 NPDir=0 NMtPBC=     1 NCelOv=     1 NCel=       1 NClECP=     1 NCelD=      1
         NCelK=      1 NCelE2=     1 NClLst=     1 CellRange=     0.0.
 One-electron integrals computed using PRISM.
 NBasis=   494 RedAO= T EigKep=  1.49D-05  NBF=   494
 NBsUse=   494 1.00D-06 EigRej= -1.00D+00 NBFU=   494
 Precomputing XC quadrature grid using
 IXCGrd= 4 IRadAn=           0 IRanWt=          -1 IRanGd=           0 AccXCQ= 0.00D+00.
 Generated NRdTot=       0 NPtTot=           0 NUsed=           0 NTot=          32
 NSgBfM=   498   499   499   499   499 MxSgAt=    37 MxSgA2=    37.
 Leave Link  302 at Thu Dec 16 23:26:43 2021, MaxMem=  6710886400 cpu:        10.2
 (Enter /usr/local/gqt/g09/l303.exe)
 DipDrv:  MaxL=1.
 Leave Link  303 at Thu Dec 16 23:26:43 2021, MaxMem=  6710886400 cpu:         1.0
 (Enter /usr/local/gqt/g09/l401.exe)
 ExpMin= 4.38D-02 ExpMax= 8.59D+03 ExpMxC= 1.30D+03 IAcc=2 IRadAn=         4 AccDes= 0.00D+00
 Harris functional with IExCor= 5547 and IRadAn=       4 diagonalized for initial guess.
 HarFok:  IExCor= 5547 AccDes= 0.00D+00 IRadAn=         4 IDoV= 1 UseB2=F ITyADJ=14
 ICtDFT=  3500011 ScaDFX=  1.000000  1.000000  1.000000  1.000000
 FoFCou: FMM=F IPFlag=           0 FMFlag=      100000 FMFlg1=           0
         NFxFlg=           0 DoJE=T BraDBF=F KetDBF=T FulRan=T
         wScrn=  0.000000 ICntrl=     500 IOpCl=  0 I1Cent=   200000004 NGrid=           0
         NMat0=    1 NMatS0=      1 NMatT0=    0 NMatD0=    1 NMtDS0=    0 NMtDT0=    0
 Petite list used in FoFCou.
 Harris En= -812.487727429297    
 JPrj=0 DoOrth=F DoCkMO=F.
 Leave Link  401 at Thu Dec 16 23:26:45 2021, MaxMem=  6710886400 cpu:        25.4
 (Enter /usr/local/gqt/g09/l502.exe)
 Closed shell SCF:
 Using DIIS extrapolation, IDIIS=  1040.
 Integral symmetry usage will be decided dynamically.
 IVT=      813905 IEndB=      813905 NGot=  6710886400 MDV=  6710350768
 LenX=  6710350768 LenY=  6710089136
 Requested convergence on RMS density matrix=1.00D-08 within 128 cycles.
 Requested convergence on MAX density matrix=1.00D-06.
 Requested convergence on             energy=1.00D-06.
 No special actions if energy rises.
 Fock matrices will be formed incrementally for  20 cycles.

 Cycle   1  Pass 1  IDiag  1:
 FoFJK:  IHMeth= 1 ICntrl=       0 DoSepK=T KAlg= 0 I1Cent=   0 FoldK=F
 IRaf=         1 NMat=   1 IRICut=       1 DoRegI=T DoRafI=F ISym2E= 0.
 FoFCou: FMM=F IPFlag=           0 FMFlag=      100000 FMFlg1=           0
         NFxFlg=           0 DoJE=T BraDBF=F KetDBF=F FulRan=T
         wScrn=  0.000000 ICntrl=     500 IOpCl=  0 I1Cent=           0 NGrid=           0
         NMat0=    1 NMatS0=      1 NMatT0=    0 NMatD0=    1 NMtDS0=    0 NMtDT0=    0
 Symmetry not used in FoFCou.
 Inv3:  Mode=1 IEnd=    25614252.
 Iteration    1 A*A^-1 deviation from unit magnitude is 5.55D-15 for    914.
 Iteration    1 A*A^-1 deviation from orthogonality  is 4.35D-15 for   2585    481.
 Iteration    1 A^-1*A deviation from unit magnitude is 5.55D-15 for   2902.
 Iteration    1 A^-1*A deviation from orthogonality  is 4.49D-09 for   2825   2811.
 Iteration    2 A*A^-1 deviation from unit magnitude is 6.55D-15 for    366.
 Iteration    2 A*A^-1 deviation from orthogonality  is 2.87D-15 for   2835    548.
 Iteration    2 A^-1*A deviation from unit magnitude is 1.11D-15 for    466.
 Iteration    2 A^-1*A deviation from orthogonality  is 4.01D-16 for   2791    499.
 E= -837.070142090926    
 DIIS: error= 6.15D-02 at cycle   1 NSaved=   1.
 NSaved= 1 IEnMin= 1 EnMin= -837.070142090926     IErMin= 1 ErrMin= 6.15D-02
 ErrMax= 6.15D-02  0.00D+00 EMaxC= 1.00D-01 BMatC= 2.25D+00 BMatP= 2.25D+00
 IDIUse=3 WtCom= 3.85D-01 WtEn= 6.15D-01
 Coeff-Com:  0.100D+01
 Coeff-En:   0.100D+01
 Coeff:      0.100D+01
 Gap=     0.271 Goal=   None    Shift=    0.000
 GapD=    0.271 DampG=1.000 DampE=0.500 DampFc=0.5000 IDamp=-1.
 Damping current iteration by 5.00D-01
 RMSDP=4.15D-03 MaxDP=3.48D-01              OVMax= 2.38D-01

 Cycle   2  Pass 1  IDiag  1:
 RMSU=  2.05D-03    CP:  9.76D-01
 E= -837.217082507628     Delta-E=       -0.146940416702 Rises=F Damp=T
 DIIS: error= 2.62D-02 at cycle   2 NSaved=   2.
 NSaved= 2 IEnMin= 2 EnMin= -837.217082507628     IErMin= 2 ErrMin= 2.62D-02
 ErrMax= 2.62D-02  0.00D+00 EMaxC= 1.00D-01 BMatC= 4.35D-01 BMatP= 2.25D+00
 IDIUse=3 WtCom= 7.38D-01 WtEn= 2.62D-01
 Coeff-Com: -0.296D+00 0.130D+01
 Coeff-En:   0.257D+00 0.743D+00
 Coeff:     -0.151D+00 0.115D+01
 Gap=     0.261 Goal=   None    Shift=    0.000
 RMSDP=2.46D-03 MaxDP=3.08D-01 DE=-1.47D-01 OVMax= 3.34D-01

 Cycle   3  Pass 1  IDiag  1:
 RMSU=  1.88D-03    CP:  8.86D-01  4.42D-01
 E= -837.217370656377     Delta-E=       -0.000288148748 Rises=F Damp=F
 DIIS: error= 4.15D-02 at cycle   3 NSaved=   3.
 NSaved= 3 IEnMin= 3 EnMin= -837.217370656377     IErMin= 2 ErrMin= 2.62D-02
 ErrMax= 4.15D-02  0.00D+00 EMaxC= 1.00D-01 BMatC= 3.46D-01 BMatP= 4.35D-01
 IDIUse=3 WtCom= 5.85D-01 WtEn= 4.15D-01
 Coeff-Com: -0.312D+00 0.759D+00 0.554D+00
 Coeff-En:   0.000D+00 0.500D+00 0.500D+00
 Coeff:     -0.183D+00 0.651D+00 0.532D+00
 Gap=     0.273 Goal=   None    Shift=    0.000
 RMSDP=1.95D-03 MaxDP=1.88D-01 DE=-2.88D-04 OVMax= 1.96D-01

 Cycle   4  Pass 1  IDiag  1:
 RMSU=  8.44D-04    CP:  9.20D-01  1.03D+00  3.55D-01
 E= -837.458147499056     Delta-E=       -0.240776842679 Rises=F Damp=F
 DIIS: error= 1.66D-02 at cycle   4 NSaved=   4.
 NSaved= 4 IEnMin= 4 EnMin= -837.458147499056     IErMin= 4 ErrMin= 1.66D-02
 ErrMax= 1.66D-02  0.00D+00 EMaxC= 1.00D-01 BMatC= 6.02D-02 BMatP= 3.46D-01
 IDIUse=3 WtCom= 8.34D-01 WtEn= 1.66D-01
 Coeff-Com: -0.132D+00 0.309D+00 0.373D+00 0.450D+00
 Coeff-En:   0.000D+00 0.000D+00 0.173D+00 0.827D+00
 Coeff:     -0.110D+00 0.258D+00 0.339D+00 0.513D+00
 Gap=     0.180 Goal=   None    Shift=    0.000
 RMSDP=7.13D-04 MaxDP=5.19D-02 DE=-2.41D-01 OVMax= 8.73D-02

 Cycle   5  Pass 1  IDiag  1:
 RMSU=  2.98D-04    CP:  9.06D-01  9.75D-01  5.78D-01  4.62D-01
 E= -837.504219139014     Delta-E=       -0.046071639959 Rises=F Damp=F
 DIIS: error= 4.96D-03 at cycle   5 NSaved=   5.
 NSaved= 5 IEnMin= 5 EnMin= -837.504219139014     IErMin= 5 ErrMin= 4.96D-03
 ErrMax= 4.96D-03  0.00D+00 EMaxC= 1.00D-01 BMatC= 5.42D-03 BMatP= 6.02D-02
 IDIUse=3 WtCom= 9.50D-01 WtEn= 4.96D-02
 Coeff-Com: -0.259D-01 0.623D-01 0.122D+00 0.312D+00 0.530D+00
 Coeff-En:   0.000D+00 0.000D+00 0.000D+00 0.654D-01 0.935D+00
 Coeff:     -0.246D-01 0.592D-01 0.116D+00 0.300D+00 0.550D+00
 Gap=     0.183 Goal=   None    Shift=    0.000
 RMSDP=2.29D-04 MaxDP=2.76D-02 DE=-4.61D-02 OVMax= 2.18D-02

 Cycle   6  Pass 1  IDiag  1:
 RMSU=  1.50D-04    CP:  9.14D-01  9.92D-01  5.34D-01  5.22D-01  6.56D-01
 E= -837.507913515341     Delta-E=       -0.003694376326 Rises=F Damp=F
 DIIS: error= 1.36D-03 at cycle   6 NSaved=   6.
 NSaved= 6 IEnMin= 6 EnMin= -837.507913515341     IErMin= 6 ErrMin= 1.36D-03
 ErrMax= 1.36D-03  0.00D+00 EMaxC= 1.00D-01 BMatC= 5.84D-04 BMatP= 5.42D-03
 IDIUse=3 WtCom= 9.86D-01 WtEn= 1.36D-02
 Coeff-Com:  0.954D-02-0.206D-01-0.429D-03 0.974D-01 0.354D+00 0.560D+00
 Coeff-En:   0.000D+00 0.000D+00 0.000D+00 0.000D+00 0.784D-01 0.922D+00
 Coeff:      0.941D-02-0.203D-01-0.423D-03 0.961D-01 0.350D+00 0.565D+00
 Gap=     0.182 Goal=   None    Shift=    0.000
 RMSDP=7.35D-05 MaxDP=6.03D-03 DE=-3.69D-03 OVMax= 9.82D-03

 Cycle   7  Pass 1  IDiag  1:
 RMSU=  3.39D-05    CP:  9.12D-01  9.84D-01  5.38D-01  5.41D-01  7.43D-01
                    CP:  6.80D-01
 E= -837.508369498442     Delta-E=       -0.000455983101 Rises=F Damp=F
 DIIS: error= 5.13D-04 at cycle   7 NSaved=   7.
 NSaved= 7 IEnMin= 7 EnMin= -837.508369498442     IErMin= 7 ErrMin= 5.13D-04
 ErrMax= 5.13D-04  0.00D+00 EMaxC= 1.00D-01 BMatC= 4.84D-05 BMatP= 5.84D-04
 IDIUse=3 WtCom= 9.95D-01 WtEn= 5.13D-03
 Coeff-Com:  0.696D-02-0.150D-01-0.621D-02 0.437D-01 0.186D+00 0.349D+00
 Coeff-Com:  0.435D+00
 Coeff-En:   0.000D+00 0.000D+00 0.000D+00 0.000D+00 0.000D+00 0.000D+00
 Coeff-En:   0.100D+01
 Coeff:      0.692D-02-0.149D-01-0.617D-02 0.434D-01 0.185D+00 0.347D+00
 Coeff:      0.438D+00
 Gap=     0.181 Goal=   None    Shift=    0.000
 RMSDP=1.59D-05 MaxDP=8.89D-04 DE=-4.56D-04 OVMax= 2.38D-03

 Cycle   8  Pass 1  IDiag  1:
 RMSU=  1.21D-05    CP:  9.12D-01  9.85D-01  5.37D-01  5.47D-01  7.45D-01
                    CP:  6.96D-01  7.50D-01
 E= -837.508405783033     Delta-E=       -0.000036284591 Rises=F Damp=F
 DIIS: error= 1.38D-04 at cycle   8 NSaved=   8.
 NSaved= 8 IEnMin= 8 EnMin= -837.508405783033     IErMin= 8 ErrMin= 1.38D-04
 ErrMax= 1.38D-04  0.00D+00 EMaxC= 1.00D-01 BMatC= 4.02D-06 BMatP= 4.84D-05
 IDIUse=3 WtCom= 9.99D-01 WtEn= 1.38D-03
 Coeff-Com:  0.227D-02-0.475D-02-0.309D-02 0.105D-01 0.513D-01 0.116D+00
 Coeff-Com:  0.258D+00 0.570D+00
 Coeff-En:   0.000D+00 0.000D+00 0.000D+00 0.000D+00 0.000D+00 0.000D+00
 Coeff-En:   0.414D-01 0.959D+00
 Coeff:      0.226D-02-0.475D-02-0.308D-02 0.105D-01 0.513D-01 0.116D+00
 Coeff:      0.258D+00 0.570D+00
 Gap=     0.181 Goal=   None    Shift=    0.000
 RMSDP=5.12D-06 MaxDP=6.05D-04 DE=-3.63D-05 OVMax= 7.24D-04

 Cycle   9  Pass 1  IDiag  1:
 RMSU=  3.89D-06    CP:  9.12D-01  9.85D-01  5.36D-01  5.46D-01  7.46D-01
                    CP:  7.03D-01  7.77D-01  8.28D-01
 E= -837.508408810724     Delta-E=       -0.000003027692 Rises=F Damp=F
 DIIS: error= 2.32D-05 at cycle   9 NSaved=   9.
 NSaved= 9 IEnMin= 9 EnMin= -837.508408810724     IErMin= 9 ErrMin= 2.32D-05
 ErrMax= 2.32D-05  0.00D+00 EMaxC= 1.00D-01 BMatC= 3.29D-07 BMatP= 4.02D-06
 IDIUse=1 WtCom= 1.00D+00 WtEn= 0.00D+00
 Coeff-Com:  0.275D-03-0.555D-03-0.764D-03 0.356D-03 0.372D-02 0.202D-01
 Coeff-Com:  0.853D-01 0.295D+00 0.596D+00
 Coeff:      0.275D-03-0.555D-03-0.764D-03 0.356D-03 0.372D-02 0.202D-01
 Coeff:      0.853D-01 0.295D+00 0.596D+00
 Gap=     0.181 Goal=   None    Shift=    0.000
 RMSDP=2.26D-06 MaxDP=3.23D-04 DE=-3.03D-06 OVMax= 1.37D-04

 Cycle  10  Pass 1  IDiag  1:
 RMSU=  1.47D-06    CP:  9.12D-01  9.86D-01  5.36D-01  5.46D-01  7.47D-01
                    CP:  7.09D-01  7.85D-01  8.63D-01  8.44D-01
 E= -837.508409067419     Delta-E=       -0.000000256694 Rises=F Damp=F
 DIIS: error= 1.56D-05 at cycle  10 NSaved=  10.
 NSaved=10 IEnMin=10 EnMin= -837.508409067419     IErMin=10 ErrMin= 1.56D-05
 ErrMax= 1.56D-05  0.00D+00 EMaxC= 1.00D-01 BMatC= 5.46D-08 BMatP= 3.29D-07
 IDIUse=1 WtCom= 1.00D+00 WtEn= 0.00D+00
 Coeff-Com: -0.522D-04 0.124D-03-0.143D-03-0.743D-03-0.282D-02 0.159D-02
 Coeff-Com:  0.262D-01 0.118D+00 0.347D+00 0.510D+00
 Coeff:     -0.522D-04 0.124D-03-0.143D-03-0.743D-03-0.282D-02 0.159D-02
 Coeff:      0.262D-01 0.118D+00 0.347D+00 0.510D+00
 Gap=     0.181 Goal=   None    Shift=    0.000
 RMSDP=7.31D-07 MaxDP=7.54D-05 DE=-2.57D-07 OVMax= 8.79D-05

 Cycle  11  Pass 1  IDiag  1:
 RMSU=  4.77D-07    CP:  9.12D-01  9.86D-01  5.36D-01  5.46D-01  7.46D-01
                    CP:  7.10D-01  7.87D-01  8.56D-01  8.55D-01  7.29D-01
 E= -837.508409101010     Delta-E=       -0.000000033591 Rises=F Damp=F
 DIIS: error= 6.23D-06 at cycle  11 NSaved=  11.
 NSaved=11 IEnMin=11 EnMin= -837.508409101010     IErMin=11 ErrMin= 6.23D-06
 ErrMax= 6.23D-06  0.00D+00 EMaxC= 1.00D-01 BMatC= 1.02D-08 BMatP= 5.46D-08
 IDIUse=1 WtCom= 1.00D+00 WtEn= 0.00D+00
 Coeff-Com: -0.448D-04 0.973D-04-0.114D-04-0.497D-03-0.222D-02-0.155D-02
 Coeff-Com:  0.217D-02 0.209D-01 0.105D+00 0.334D+00 0.542D+00
 Coeff:     -0.448D-04 0.973D-04-0.114D-04-0.497D-03-0.222D-02-0.155D-02
 Coeff:      0.217D-02 0.209D-01 0.105D+00 0.334D+00 0.542D+00
 Gap=     0.181 Goal=   None    Shift=    0.000
 RMSDP=3.21D-07 MaxDP=4.37D-05 DE=-3.36D-08 OVMax= 1.89D-05

 Cycle  12  Pass 1  IDiag  1:
 RMSU=  1.84D-07    CP:  9.12D-01  9.86D-01  5.36D-01  5.46D-01  7.47D-01
                    CP:  7.10D-01  7.90D-01  8.65D-01  8.61D-01  8.01D-01
                    CP:  7.25D-01
 E= -837.508409108692     Delta-E=       -0.000000007683 Rises=F Damp=F
 DIIS: error= 1.80D-06 at cycle  12 NSaved=  12.
 NSaved=12 IEnMin=12 EnMin= -837.508409108692     IErMin=12 ErrMin= 1.80D-06
 ErrMax= 1.80D-06  0.00D+00 EMaxC= 1.00D-01 BMatC= 8.68D-10 BMatP= 1.02D-08
 IDIUse=1 WtCom= 1.00D+00 WtEn= 0.00D+00
 Coeff-Com: -0.227D-04 0.474D-04 0.182D-04-0.200D-03-0.106D-02-0.109D-02
 Coeff-Com: -0.176D-02-0.101D-02 0.234D-01 0.144D+00 0.285D+00 0.552D+00
 Coeff:     -0.227D-04 0.474D-04 0.182D-04-0.200D-03-0.106D-02-0.109D-02
 Coeff:     -0.176D-02-0.101D-02 0.234D-01 0.144D+00 0.285D+00 0.552D+00
 Gap=     0.181 Goal=   None    Shift=    0.000
 RMSDP=8.02D-08 MaxDP=4.77D-06 DE=-7.68D-09 OVMax= 1.00D-05

 Cycle  13  Pass 1  IDiag  1:
 RMSU=  5.44D-08    CP:  9.12D-01  9.86D-01  5.36D-01  5.46D-01  7.46D-01
                    CP:  7.11D-01  7.90D-01  8.64D-01  8.62D-01  8.14D-01
                    CP:  7.39D-01  7.89D-01
 E= -837.508409109316     Delta-E=       -0.000000000624 Rises=F Damp=F
 DIIS: error= 7.34D-07 at cycle  13 NSaved=  13.
 NSaved=13 IEnMin=13 EnMin= -837.508409109316     IErMin=13 ErrMin= 7.34D-07
 ErrMax= 7.34D-07  0.00D+00 EMaxC= 1.00D-01 BMatC= 1.43D-10 BMatP= 8.68D-10
 IDIUse=1 WtCom= 1.00D+00 WtEn= 0.00D+00
 Coeff-Com: -0.137D-05 0.136D-05 0.763D-05-0.159D-04-0.174D-03-0.274D-03
 Coeff-Com: -0.143D-02-0.485D-02-0.755D-02 0.174D-01 0.376D-01 0.305D+00
 Coeff-Com:  0.654D+00
 Coeff:     -0.137D-05 0.136D-05 0.763D-05-0.159D-04-0.174D-03-0.274D-03
 Coeff:     -0.143D-02-0.485D-02-0.755D-02 0.174D-01 0.376D-01 0.305D+00
 Coeff:      0.654D+00
 Gap=     0.181 Goal=   None    Shift=    0.000
 RMSDP=4.97D-08 MaxDP=7.49D-06 DE=-6.24D-10 OVMax= 2.95D-06

 Cycle  14  Pass 1  IDiag  1:
 RMSU=  2.13D-08    CP:  9.12D-01  9.86D-01  5.36D-01  5.46D-01  7.46D-01
                    CP:  7.11D-01  7.90D-01  8.65D-01  8.63D-01  8.21D-01
                    CP:  7.38D-01  8.34D-01  6.82D-01
 E= -837.508409109393     Delta-E=       -0.000000000077 Rises=F Damp=F
 DIIS: error= 8.03D-08 at cycle  14 NSaved=  14.
 NSaved=14 IEnMin=14 EnMin= -837.508409109393     IErMin=14 ErrMin= 8.03D-08
 ErrMax= 8.03D-08  0.00D+00 EMaxC= 1.00D-01 BMatC= 4.74D-12 BMatP= 1.43D-10
 IDIUse=1 WtCom= 1.00D+00 WtEn= 0.00D+00
 Coeff-Com:  0.344D-06-0.124D-05 0.229D-05 0.273D-05-0.278D-04-0.619D-04
 Coeff-Com: -0.498D-03-0.189D-02-0.400D-02 0.102D-02 0.244D-02 0.101D+00
 Coeff-Com:  0.293D+00 0.609D+00
 Coeff:      0.344D-06-0.124D-05 0.229D-05 0.273D-05-0.278D-04-0.619D-04
 Coeff:     -0.498D-03-0.189D-02-0.400D-02 0.102D-02 0.244D-02 0.101D+00
 Coeff:      0.293D+00 0.609D+00
 Gap=     0.181 Goal=   None    Shift=    0.000
 RMSDP=1.08D-08 MaxDP=1.88D-06 DE=-7.69D-11 OVMax= 3.43D-07

 Cycle  15  Pass 1  IDiag  1:
 RMSU=  5.37D-09    CP:  9.12D-01  9.86D-01  5.36D-01  5.46D-01  7.47D-01
                    CP:  7.11D-01  7.90D-01  8.65D-01  8.64D-01  8.21D-01
                    CP:  7.36D-01  8.50D-01  7.25D-01  7.35D-01
 E= -837.508409109397     Delta-E=       -0.000000000004 Rises=F Damp=F
 DIIS: error= 2.34D-08 at cycle  15 NSaved=  15.
 NSaved=15 IEnMin=15 EnMin= -837.508409109397     IErMin=15 ErrMin= 2.34D-08
 ErrMax= 2.34D-08  0.00D+00 EMaxC= 1.00D-01 BMatC= 3.19D-13 BMatP= 4.74D-12
 IDIUse=1 WtCom= 1.00D+00 WtEn= 0.00D+00
 Coeff-Com:  0.196D-06-0.458D-06 0.118D-06 0.260D-05 0.505D-05 0.286D-05
 Coeff-Com: -0.500D-04-0.243D-03-0.776D-03-0.130D-02-0.222D-02 0.846D-02
 Coeff-Com:  0.559D-01 0.233D+00 0.707D+00
 Coeff:      0.196D-06-0.458D-06 0.118D-06 0.260D-05 0.505D-05 0.286D-05
 Coeff:     -0.500D-04-0.243D-03-0.776D-03-0.130D-02-0.222D-02 0.846D-02
 Coeff:      0.559D-01 0.233D+00 0.707D+00
 Gap=     0.181 Goal=   None    Shift=    0.000
 RMSDP=3.32D-09 MaxDP=5.65D-07 DE=-3.87D-12 OVMax= 8.86D-08

 Error on total polarization charges =  0.01571
 SCF Done:  E(RN12SX) =  -837.508409109     A.U. after   15 cycles
            NFock= 15  Conv=0.33D-08     -V/T= 2.0051
 KE= 8.332508000350D+02 PE=-4.342490776515D+03 EE= 1.478650737369D+03
 Leave Link  502 at Thu Dec 16 23:29:47 2021, MaxMem=  6710886400 cpu:      2886.7
 (Enter /usr/local/gqt/g09/l601.exe)
 Copying SCF densities to generalized density rwf, IOpCl= 0 IROHF=0.

 **********************************************************************

            Population analysis using the SCF density.

 **********************************************************************

 Orbital symmetries:
       Occupied  (A) (A) (A) (A) (A) (A) (A) (A) (A) (A) (A) (A)
                 (A) (A) (A) (A) (A) (A) (A) (A) (A) (A) (A) (A)
                 (A) (A) (A) (A) (A) (A) (A) (A) (A) (A) (A) (A)
                 (A) (A) (A) (A) (A) (A) (A) (A) (A) (A) (A) (A)
                 (A) (A) (A) (A) (A) (A) (A) (A) (A) (A) (A) (A)
                 (A) (A) (A) (A) (A) (A)
       Virtual   (A) (A) (A) (A) (A) (A) (A) (A) (A) (A) (A) (A)
                 (A) (A) (A) (A) (A) (A) (A) (A) (A) (A) (A) (A)
                 (A) (A) (A) (A) (A) (A) (A) (A) (A) (A) (A) (A)
                 (A) (A) (A) (A) (A) (A) (A) (A) (A) (A) (A) (A)
                 (A) (A) (A) (A) (A) (A) (A) (A) (A) (A) (A) (A)
                 (A) (A) (A) (A) (A) (A) (A) (A) (A) (A) (A) (A)
                 (A) (A) (A) (A) (A) (A) (A) (A) (A) (A) (A) (A)
                 (A) (A) (A) (A) (A) (A) (A) (A) (A) (A) (A) (A)
                 (A) (A) (A) (A) (A) (A) (A) (A) (A) (A) (A) (A)
                 (A) (A) (A) (A) (A) (A) (A) (A) (A) (A) (A) (A)
                 (A) (A) (A) (A) (A) (A) (A) (A) (A) (A) (A) (A)
                 (A) (A) (A) (A) (A) (A) (A) (A) (A) (A) (A) (A)
                 (A) (A) (A) (A) (A) (A) (A) (A) (A) (A) (A) (A)
                 (A) (A) (A) (A) (A) (A) (A) (A) (A) (A) (A) (A)
                 (A) (A) (A) (A) (A) (A) (A) (A) (A) (A) (A) (A)
                 (A) (A) (A) (A) (A) (A) (A) (A) (A) (A) (A) (A)
                 (A) (A) (A) (A) (A) (A) (A) (A) (A) (A) (A) (A)
                 (A) (A) (A) (A) (A) (A) (A) (A) (A) (A) (A) (A)
                 (A) (A) (A) (A) (A) (A) (A) (A) (A) (A) (A) (A)
                 (A) (A) (A) (A) (A) (A) (A) (A) (A) (A) (A) (A)
                 (A) (A) (A) (A) (A) (A) (A) (A) (A) (A) (A) (A)
                 (A) (A) (A) (A) (A) (A) (A) (A) (A) (A) (A) (A)
                 (A) (A) (A) (A) (A) (A) (A) (A) (A) (A) (A) (A)
                 (A) (A) (A) (A) (A) (A) (A) (A) (A) (A) (A) (A)
                 (A) (A) (A) (A) (A) (A) (A) (A) (A) (A) (A) (A)
                 (A) (A) (A) (A) (A) (A) (A) (A) (A) (A) (A) (A)
                 (A) (A) (A) (A) (A) (A) (A) (A) (A) (A) (A) (A)
                 (A) (A) (A) (A) (A) (A) (A) (A) (A) (A) (A) (A)
                 (A) (A) (A) (A) (A) (A) (A) (A) (A) (A) (A) (A)
                 (A) (A) (A) (A) (A) (A) (A) (A) (A) (A) (A) (A)
                 (A) (A) (A) (A) (A) (A) (A) (A) (A) (A) (A) (A)
                 (A) (A) (A) (A) (A) (A) (A) (A) (A) (A) (A) (A)
                 (A) (A) (A) (A) (A) (A) (A) (A) (A) (A) (A) (A)
                 (A) (A) (A) (A) (A) (A) (A) (A) (A) (A) (A) (A)
                 (A) (A) (A) (A) (A) (A) (A) (A) (A) (A) (A) (A)
                 (A) (A) (A) (A) (A) (A) (A) (A)
 The electronic state is 1-A.
 Alpha  occ. eigenvalues --  -19.21661 -19.15506 -19.13922 -14.52138 -14.47917
 Alpha  occ. eigenvalues --  -14.47176 -14.40862 -10.36003 -10.27804 -10.27303
 Alpha  occ. eigenvalues --  -10.26778 -10.26138 -10.25152 -10.23370 -10.22422
 Alpha  occ. eigenvalues --  -10.22271 -10.19914  -1.19409  -1.10514  -1.01565
 Alpha  occ. eigenvalues --   -0.99584  -0.98840  -0.92099  -0.82210  -0.82042
 Alpha  occ. eigenvalues --   -0.76558  -0.73997  -0.72421  -0.68084  -0.67718
 Alpha  occ. eigenvalues --   -0.63117  -0.62730  -0.59832  -0.55198  -0.54609
 Alpha  occ. eigenvalues --   -0.54192  -0.51132  -0.50124  -0.49123  -0.48467
 Alpha  occ. eigenvalues --   -0.47414  -0.47302  -0.45653  -0.45101  -0.44215
 Alpha  occ. eigenvalues --   -0.43853  -0.42541  -0.42282  -0.41972  -0.39652
 Alpha  occ. eigenvalues --   -0.39345  -0.38767  -0.37443  -0.36229  -0.35509
 Alpha  occ. eigenvalues --   -0.34917  -0.34291  -0.32779  -0.32532  -0.32368
 Alpha  occ. eigenvalues --   -0.31918  -0.30582  -0.29400  -0.27613  -0.25492
 Alpha  occ. eigenvalues --   -0.24884
 Alpha virt. eigenvalues --   -0.06744  -0.01374  -0.00732  -0.00294  -0.00019
 Alpha virt. eigenvalues --    0.00646   0.01270   0.01308   0.01852   0.02639
 Alpha virt. eigenvalues --    0.02884   0.03254   0.03639   0.03752   0.03991
 Alpha virt. eigenvalues --    0.04462   0.04940   0.05765   0.05969   0.06410
 Alpha virt. eigenvalues --    0.06627   0.07275   0.07604   0.07818   0.08002
 Alpha virt. eigenvalues --    0.08346   0.09298   0.09549   0.10134   0.10413
 Alpha virt. eigenvalues --    0.10894   0.11134   0.11348   0.11519   0.11736
 Alpha virt. eigenvalues --    0.11910   0.12409   0.12941   0.13627   0.14029
 Alpha virt. eigenvalues --    0.14411   0.14973   0.15395   0.15671   0.16287
 Alpha virt. eigenvalues --    0.16459   0.17024   0.17413   0.17596   0.17858
 Alpha virt. eigenvalues --    0.18310   0.18649   0.19078   0.19544   0.19676
 Alpha virt. eigenvalues --    0.19907   0.20317   0.20648   0.20847   0.20995
 Alpha virt. eigenvalues --    0.21323   0.22247   0.22307   0.22472   0.22684
 Alpha virt. eigenvalues --    0.23144   0.23423   0.23907   0.24881   0.25231
 Alpha virt. eigenvalues --    0.25555   0.25895   0.26110   0.26602   0.26721
 Alpha virt. eigenvalues --    0.27041   0.27460   0.27623   0.28016   0.28373
 Alpha virt. eigenvalues --    0.29165   0.29312   0.29443   0.29965   0.30816
 Alpha virt. eigenvalues --    0.31172   0.31441   0.31967   0.32503   0.32793
 Alpha virt. eigenvalues --    0.33323   0.33880   0.34480   0.35207   0.35563
 Alpha virt. eigenvalues --    0.35769   0.36993   0.38012   0.38452   0.39510
 Alpha virt. eigenvalues --    0.40214   0.40495   0.40924   0.41862   0.42145
 Alpha virt. eigenvalues --    0.42488   0.43034   0.43790   0.44980   0.45697
 Alpha virt. eigenvalues --    0.46501   0.47397   0.47810   0.48656   0.49065
 Alpha virt. eigenvalues --    0.50918   0.51971   0.52647   0.53628   0.54369
 Alpha virt. eigenvalues --    0.55246   0.56298   0.57037   0.57223   0.58871
 Alpha virt. eigenvalues --    0.59897   0.60220   0.61845   0.62023   0.62692
 Alpha virt. eigenvalues --    0.63095   0.63834   0.65237   0.65406   0.66460
 Alpha virt. eigenvalues --    0.66951   0.67387   0.68001   0.68663   0.69264
 Alpha virt. eigenvalues --    0.70254   0.70359   0.70940   0.71398   0.71681
 Alpha virt. eigenvalues --    0.72850   0.74081   0.74647   0.75477   0.75707
 Alpha virt. eigenvalues --    0.76178   0.76819   0.77481   0.78065   0.78592
 Alpha virt. eigenvalues --    0.79287   0.79863   0.80637   0.81915   0.83562
 Alpha virt. eigenvalues --    0.84588   0.84899   0.86086   0.87170   0.88170
 Alpha virt. eigenvalues --    0.88732   0.90488   0.90883   0.94190   0.95519
 Alpha virt. eigenvalues --    0.96956   0.97866   1.00247   1.00944   1.01185
 Alpha virt. eigenvalues --    1.02148   1.02493   1.04160   1.05226   1.07069
 Alpha virt. eigenvalues --    1.09073   1.09879   1.11470   1.12297   1.14719
 Alpha virt. eigenvalues --    1.15475   1.16289   1.16929   1.18258   1.19330
 Alpha virt. eigenvalues --    1.21433   1.22869   1.24247   1.24880   1.25173
 Alpha virt. eigenvalues --    1.26431   1.26900   1.28429   1.29288   1.30664
 Alpha virt. eigenvalues --    1.31929   1.33227   1.34864   1.35329   1.37256
 Alpha virt. eigenvalues --    1.40437   1.42337   1.42480   1.43834   1.45344
 Alpha virt. eigenvalues --    1.46958   1.48772   1.49100   1.49767   1.50468
 Alpha virt. eigenvalues --    1.52044   1.52253   1.52934   1.53448   1.54508
 Alpha virt. eigenvalues --    1.55249   1.55480   1.56227   1.57162   1.57655
 Alpha virt. eigenvalues --    1.58080   1.58319   1.59516   1.59879   1.60594
 Alpha virt. eigenvalues --    1.61668   1.61989   1.62322   1.63470   1.64361
 Alpha virt. eigenvalues --    1.65626   1.66160   1.66768   1.67970   1.69249
 Alpha virt. eigenvalues --    1.69956   1.70579   1.71710   1.72820   1.74080
 Alpha virt. eigenvalues --    1.74477   1.74666   1.76486   1.76833   1.78416
 Alpha virt. eigenvalues --    1.79395   1.81158   1.82080   1.83924   1.84403
 Alpha virt. eigenvalues --    1.86203   1.87485   1.88042   1.88799   1.89313
 Alpha virt. eigenvalues --    1.91823   1.92791   1.94128   1.94275   1.96840
 Alpha virt. eigenvalues --    1.97116   1.99661   2.00635   2.01999   2.02736
 Alpha virt. eigenvalues --    2.06071   2.07060   2.07999   2.10671   2.12796
 Alpha virt. eigenvalues --    2.13841   2.14567   2.18054   2.18876   2.19785
 Alpha virt. eigenvalues --    2.20828   2.22423   2.23414   2.24802   2.25777
 Alpha virt. eigenvalues --    2.27796   2.28862   2.30377   2.33398   2.33929
 Alpha virt. eigenvalues --    2.34534   2.38282   2.40765   2.40871   2.42962
 Alpha virt. eigenvalues --    2.44097   2.46043   2.46555   2.48060   2.48474
 Alpha virt. eigenvalues --    2.48756   2.49343   2.50330   2.51358   2.51947
 Alpha virt. eigenvalues --    2.52728   2.53422   2.53668   2.54036   2.56101
 Alpha virt. eigenvalues --    2.57003   2.59209   2.60006   2.60427   2.62870
 Alpha virt. eigenvalues --    2.63694   2.63889   2.64925   2.66305   2.66817
 Alpha virt. eigenvalues --    2.67428   2.68627   2.68934   2.71879   2.72081
 Alpha virt. eigenvalues --    2.73517   2.73920   2.74619   2.75720   2.78600
 Alpha virt. eigenvalues --    2.79446   2.80727   2.81543   2.82613   2.83221
 Alpha virt. eigenvalues --    2.83812   2.87665   2.88503   2.88742   2.90386
 Alpha virt. eigenvalues --    2.91949   2.92553   2.94995   2.95479   2.95925
 Alpha virt. eigenvalues --    2.96154   2.98015   3.01015   3.04325   3.05558
 Alpha virt. eigenvalues --    3.06531   3.13917   3.14459   3.15715   3.17136
 Alpha virt. eigenvalues --    3.22905   3.24814   3.27066   3.28560   3.29791
 Alpha virt. eigenvalues --    3.34253   3.35071   3.37831   3.39305   3.41284
 Alpha virt. eigenvalues --    3.54584   3.56066   3.57967   3.62705   3.65948
 Alpha virt. eigenvalues --    3.69775   3.70077   3.77815   3.79441   3.80250
 Alpha virt. eigenvalues --    3.81491   3.82143   3.82906   3.83371   3.83674
 Alpha virt. eigenvalues --    3.83851   3.86122   3.90128   3.93461   3.95101
 Alpha virt. eigenvalues --    3.97089   3.97518   4.01916   4.05112   4.09730
 Alpha virt. eigenvalues --    4.10094   4.12608   4.21937   4.26778   4.28287
 Alpha virt. eigenvalues --    4.29130   4.38744   4.57571   4.76245   4.99691
 Alpha virt. eigenvalues --    5.00115   5.01053   5.02976   5.07382   5.11179
 Alpha virt. eigenvalues --    5.27451   5.41613   5.57423   5.68287   5.70583
 Alpha virt. eigenvalues --    5.86132  23.72070  23.73894  23.75325  23.76764
 Alpha virt. eigenvalues --   23.79298  23.80425  23.82769  23.83574  23.85003
 Alpha virt. eigenvalues --   23.88985  35.12827  35.28728  35.31574  35.37542
 Alpha virt. eigenvalues --   49.59558  49.65504  49.73268
          Condensed to atoms (all electrons):
               1          2          3          4          5          6
     1  H    0.309682   0.212849  -0.028833  -0.001571  -0.005288  -0.000418
     2  O    0.212849   8.467088   0.161005  -0.060162  -0.061289   0.014604
     3  C   -0.028833   0.161005   5.554238   0.441355   0.414687  -0.017909
     4  H   -0.001571  -0.060162   0.441355   0.595569  -0.056150   0.000502
     5  H   -0.005288  -0.061289   0.414687  -0.056150   0.606951   0.000744
     6  C   -0.000418   0.014604  -0.017909   0.000502   0.000744   7.059013
     7  C   -0.005810   0.052137  -0.049692  -0.000743   0.001450   0.257637
     8  C    0.002222  -0.012578  -0.017161  -0.000524   0.000405  -0.886272
     9  H   -0.000002   0.000019   0.000549   0.000001  -0.000002   0.462912
    10  H   -0.000001  -0.000009  -0.000138   0.000000   0.000000   0.374616
    11  C    0.001303  -0.011560   0.047062   0.000087  -0.000687  -0.024185
    12  H    0.000241   0.000301  -0.001175   0.000001   0.000000   0.002119
    13  H    0.000659  -0.030378   0.010355   0.000377  -0.000680  -0.013869
    14  H   -0.000001   0.000054  -0.000178   0.000000  -0.000001   0.003194
    15  H   -0.000163   0.001238   0.003281   0.000034  -0.000103  -0.109876
    16  H   -0.000016   0.000315  -0.000226   0.000000   0.000001   0.042641
    17  H    0.000002  -0.000239  -0.000040   0.000000   0.000000  -0.058345
    18  O   -0.000182   0.005486  -0.010423   0.000094   0.000073  -0.202256
    19  O   -0.000013   0.000412   0.001449   0.000008   0.000000  -0.126267
    20  C    0.001174  -0.030233   0.032702  -0.000684  -0.001222  -0.460250
    21  C    0.024120  -0.192122  -0.298783  -0.064761  -0.040540   0.041389
    22  H    0.000321   0.011331  -0.020230  -0.002816  -0.003264  -0.000339
    23  H   -0.000546   0.001922  -0.051307   0.009487  -0.011738   0.023026
    24  H   -0.000802   0.004674  -0.048293  -0.011648   0.009585  -0.002091
    25  N   -0.015171   0.015756   0.007081  -0.000019  -0.000215   0.000020
    26  N    0.014337  -0.008101  -0.006382   0.000006  -0.000002  -0.000012
    27  N   -0.007575   0.006154   0.003160   0.000141  -0.000371   0.000051
    28  C    0.005466  -0.002106  -0.024479   0.004684  -0.002516  -0.001320
    29  N   -0.003015   0.002780  -0.004937  -0.000815   0.001415   0.000232
    30  C   -0.002321  -0.003615  -0.006884  -0.000470   0.001301   0.000262
    31  C    0.000927  -0.000156  -0.000378   0.000041  -0.000019  -0.000001
    32  H    0.000115   0.002449  -0.000513   0.000017  -0.000067  -0.000004
    33  H   -0.000327   0.000399  -0.000600   0.000003  -0.000013  -0.000001
    34  H   -0.000360   0.000378   0.000517   0.000000  -0.000006   0.000001
    35  H   -0.000006   0.000002   0.000018   0.000000   0.000000   0.000000
    36  H    0.000009  -0.000007  -0.000051   0.000001   0.000000   0.000000
    37  H    0.000013  -0.000011   0.000011   0.000000   0.000000   0.000000
               7          8          9         10         11         12
     1  H   -0.005810   0.002222  -0.000002  -0.000001   0.001303   0.000241
     2  O    0.052137  -0.012578   0.000019  -0.000009  -0.011560   0.000301
     3  C   -0.049692  -0.017161   0.000549  -0.000138   0.047062  -0.001175
     4  H   -0.000743  -0.000524   0.000001   0.000000   0.000087   0.000001
     5  H    0.001450   0.000405  -0.000002   0.000000  -0.000687   0.000000
     6  C    0.257637  -0.886272   0.462912   0.374616  -0.024185   0.002119
     7  C    6.222170   0.097329  -0.011117   0.010777  -0.778521   0.433203
     8  C    0.097329   7.168684  -0.077245   0.024604  -0.880622   0.030548
     9  H   -0.011117  -0.077245   0.450592  -0.018401   0.034321   0.000007
    10  H    0.010777   0.024604  -0.018401   0.444785  -0.046908  -0.000012
    11  C   -0.778521  -0.880622   0.034321  -0.046908   7.070055  -0.066940
    12  H    0.433203   0.030548   0.000007  -0.000012  -0.066940   0.507976
    13  H    0.380298  -0.043885   0.000275  -0.000083   0.023960  -0.028581
    14  H    0.028638   0.381479  -0.001825  -0.008415  -0.054507  -0.000246
    15  H   -0.014332   0.506621  -0.004513   0.003753  -0.039964  -0.000331
    16  H   -0.035032  -0.094784  -0.000175  -0.000141   0.449346  -0.001811
    17  H   -0.040464   0.024324   0.000003   0.002784   0.420185  -0.007209
    18  O    0.110833   0.039100   0.005712  -0.001344   0.009535  -0.060072
    19  O    0.007042  -0.050596  -0.005132  -0.011204   0.012542  -0.000088
    20  C   -0.320344  -0.010687  -0.053358  -0.003674   0.246837   0.002361
    21  C    0.039124  -0.007750  -0.000432  -0.000506  -0.040621   0.001225
    22  H    0.001619   0.001878   0.000005   0.000000  -0.001296  -0.000001
    23  H    0.002985  -0.012126  -0.000362  -0.000006  -0.000995  -0.000026
    24  H   -0.014211  -0.003241  -0.000063  -0.000009   0.009428   0.000102
    25  N    0.000213  -0.000081   0.000000   0.000000   0.000176   0.000002
    26  N   -0.000806   0.000145   0.000000   0.000000   0.000047   0.000010
    27  N    0.000087  -0.000220   0.000000   0.000000   0.000394  -0.000010
    28  C   -0.007387   0.001965   0.000002   0.000000   0.000897   0.000242
    29  N    0.001440  -0.000339   0.000000   0.000000  -0.000547  -0.000016
    30  C    0.002252   0.000169   0.000000   0.000000  -0.002248  -0.000018
    31  C   -0.000066   0.000003   0.000000   0.000000   0.000017   0.000002
    32  H   -0.000752  -0.000054   0.000000   0.000000   0.000496   0.000001
    33  H    0.000015  -0.000003   0.000000   0.000000   0.000005   0.000000
[...]
 0.05974617,0.00011193,0.00001147,-0.00008586,-0.00008187,0.00001233,0.
 00006841,0.00000484,-0.00002555,-0.00006023,0.00000208,-0.00000226,0.0
 0001121,0.00000175,0.00000941,0.00001186,-0.00000024,0.00000105,-0.000
 00022,0.00000696,0.00000394,-0.00000361,0.00000014,-0.00000089,0.00000
 059,-0.00000082,-0.00000004,0.00000074,-0.00000022,-0.00000014,-0.0000
 0008,0.00000288,0.00000094,-0.00000148,0.00000059,0.00000060,0.0000004
 5,0.00000319,0.00000141,-0.00000094,-0.00000063,0.00000046,-0.00000060
 ,0.00000088,-0.00000135,-0.00000111,-0.00000042,-0.00000128,0.00000349
 ,-0.00000182,-0.00000038,-0.00000003,-0.00001310,0.00000215,0.00000637
 ,-0.00000559,-0.00000155,0.00000611,0.00001158,-0.00000383,-0.00000807
 ,0.00000027,0.00000367,0.00000784,-0.00000341,-0.00000008,0.00000285,-
 0.00000099,-0.00000053,-0.00000169,0.00000133,0.00000109,-0.00000128,0
 .00102477,-0.00023501,0.00041757,0.00077556,0.00077345,-0.00060409,-0.
 00043899,0.00068010,-0.00007537,-0.00041758,-0.00081360,0.00054753,0.0
 0537817,0.01014607,0.00329286,-0.15627442,-0.12553567,-0.06228032,-0.0
 0001213,-0.00022561,-0.00025843,-0.01415242,-0.02161767,-0.01159718,0.
 16028609,0.00051299,-0.00009090,-0.00008264,-0.00038213,0.00006040,0.0
 0012380,-0.00000707,-0.00000860,-0.00010895,0.00000525,-0.00000135,0.0
 0000711,0.00000347,0.00000712,0.00001427,-0.00000005,0.00000025,0.0000
 0023,0.00000240,-0.00000071,-0.00000055,-0.00000049,0.00000056,-0.0000
 0106,0.00000008,0.00000013,0.,0.00000011,0.00000031,-0.00000014,-0.000
 00289,-0.00000201,0.00000115,-0.00000073,-0.00000038,-0.00000003,0.000
 00450,0.00000065,0.00000538,-0.00000066,0.00000046,-0.00000026,-0.0000
 0055,-0.00000042,0.00000114,0.00000117,0.00000024,-0.00000106,-0.00000
 027,0.00000118,-0.00000099,-0.00000614,0.00000314,-0.00000028,-0.00000
 285,0.00000061,0.00000109,0.00000746,-0.00000409,-0.00000129,0.0000009
 6,0.00000260,0.00002205,-0.00000959,0.00000021,0.00000709,-0.00000250,
 0.00000076,-0.00000187,0.00000012,0.00000012,-0.00000202,-0.00317417,0
 .00267671,-0.00129463,-0.00054608,-0.00145728,0.00166611,0.00139868,-0
 .00092984,0.00148604,0.00246887,-0.00054030,-0.00254508,-0.01692907,-0
 .03041676,-0.00275254,-0.11780596,-0.18685613,-0.06998046,-0.00015678,
 0.00024621,0.00026524,0.00492410,0.00808158,0.00368547,0.13170334,0.21
 080186,-0.00026987,0.00004505,0.00006881,0.00019977,-0.00003009,-0.000
 07058,0.00000493,0.00001088,0.00005985,-0.00000347,0.00000123,-0.00000
 408,-0.00000244,-0.00000587,-0.00001110,0.00000028,0.00000032,0.000000
 19,0.00000191,0.00000157,-0.00000151,0.00000034,-0.00000079,0.00000062
 ,-0.00000015,-0.00000003,0.00000027,-0.00000021,-0.00000026,-0.0000000
 3,0.00000019,0.00000100,-0.00000067,0.00000057,0.00000091,0.00000048,-
 0.00000130,-0.00000076,-0.00000330,0.00000025,0.00000004,0.00000009,0.
 00000023,0.00000039,-0.00000074,0.00000063,-0.00000050,0.00000164,-0.0
 0000044,-0.00000088,0.00000007,-0.00000239,-0.00000040,0.00000267,-0.0
 0000090,-0.00000125,0.00000143,0.00000080,0.00000070,-0.00000217,-0.00
 000058,-0.00000342,-0.00001160,0.00000511,0.00000003,-0.00000328,0.000
 00163,0.,0.00000080,-0.00000034,-0.00000068,0.00000064,0.00119282,-0.0
 0098738,0.00112021,0.00037122,0.00010595,-0.00052608,-0.00041380,0.000
 64079,-0.00150537,-0.00124023,0.00152127,0.00077137,0.01376092,0.01978
 055,0.00474280,-0.06571996,-0.07593970,-0.08601603,0.00004250,-0.00012
 689,-0.00007619,0.00408290,0.00550910,0.00185634,0.06811957,0.07107716
 ,0.08799869,0.00006765,0.00005626,0.00000872,-0.00002287,-0.00001555,0
 .00000242,0.00000210,0.00000606,-0.00001511,0.00000251,-0.00000221,0.0
 0000174,0.00000008,-0.00000287,-0.00000401,-0.00000022,-0.00000106,-0.
 00000080,-0.00000893,-0.00000551,0.00000484,0.00000090,0.00000200,0.00
 000023,0.00000100,0.,-0.00000075,0.00000016,0.00000020,0.00000006,-0.0
 0000081,-0.00000103,0.00000221,-0.00000197,-0.00000227,-0.00000071,-0.
 00000080,-0.00000009,0.00000530,-0.00000045,-0.00000026,0.00000008,-0.
 00000085,0.00000031,0.00000088,-0.00000096,0.00000254,-0.00000358,0.00
 000162,0.00000048,-0.00000012,0.00001112,-0.00000210,-0.00000818,0.000
 00550,0.00000247,-0.00000692,-0.00001027,0.00000250,0.00000947,0.00000
 018,-0.00000259,0.00000031,-0.00000080,0.00000008,0.00000027,0.0000001
 4,0.00000041,0.00000024,-0.00000199,-0.00000084,0.00000016,0.00098097,
 -0.00079608,-0.00036075,0.00069462,0.00102569,-0.00072293,-0.00086599,
 0.00026700,-0.00035333,-0.00039922,-0.00125472,0.00095304,-0.00021544,
 0.00184615,-0.00895659,-0.05497668,0.00554667,0.04192668,0.00016853,0.
 00013171,0.00028170,-0.00086381,0.00342290,0.02977485,0.00381352,-0.00
 223827,-0.02007356,0.05168175,0.00043669,-0.00007394,-0.00006003,-0.00
 032752,0.00005157,0.00010036,-0.00000763,-0.00001076,-0.00008779,0.000
 00389,0.00000082,0.00000545,0.00000491,0.00000542,0.00001397,0.0000001
 9,-0.00000038,-0.00000002,-0.00000254,-0.00000083,0.00000078,-0.000000
 69,0.00000108,-0.00000111,0.00000004,0.00000003,-0.00000020,0.00000020
 ,0.00000033,-0.00000003,-0.00000054,-0.00000166,0.00000107,-0.00000160
 ,-0.00000147,-0.00000063,0.00000289,0.00000112,0.00000523,-0.00000006,
 -0.00000016,-0.00000016,-0.00000020,-0.00000040,0.00000076,-0.00000029
 ,0.00000175,-0.00000159,0.00000018,0.00000091,-0.00000038,0.00000086,0
 .00000032,-0.00000215,0.00000036,0.00000081,-0.00000107,0.00000063,-0.
 00000082,0.00000165,0.00000118,0.00000390,0.00001852,-0.00000763,-0.00
 000018,0.00000544,-0.00000275,0.00000036,-0.00000146,0.00000008,0.0000
 0031,-0.00000116,-0.00244760,0.00325601,0.00000284,-0.00095832,-0.0017
 6287,0.00070967,0.00056437,-0.00234033,-0.00035519,0.00297151,0.000709
 24,0.00080281,-0.00450646,-0.00480522,0.03961759,0.00792682,-0.0546603
 6,-0.04815852,-0.00030788,-0.00006999,-0.00029658,-0.00064847,-0.00123
 798,-0.00708924,0.00508223,-0.00143580,-0.02166409,-0.00800610,0.06243
 435,-0.00039391,0.00004002,0.00005573,0.00028953,-0.00003339,-0.000088
 84,0.00000029,0.00000119,0.00008552,-0.00000463,0.00000131,-0.00000734
 ,-0.00000365,-0.00000279,-0.00000849,0.00000009,0.00000012,0.00000027,
 -0.00000059,0.00000048,-0.00000225,-0.00000078,-0.00000141,-0.00000025
 ,-0.00000047,-0.00000007,0.00000019,0.00000002,-0.00000009,0.00000005,
 0.00000398,0.00000249,-0.00000020,0.00000100,0.00000121,0.00000081,-0.
 00000294,-0.00000235,-0.00000595,0.00000069,-0.00000023,0.00000028,0.0
 0000072,0.00000074,-0.00000070,-0.00000067,-0.00000066,0.00000123,0.00
 000029,-0.00000081,0.00000090,0.00000122,-0.00000136,0.00000310,0.0000
 0072,-0.00000079,0.00000130,-0.00000264,0.00000180,-0.00000213,-0.0000
 0066,0.00000046,-0.00001557,0.00000703,-0.00000040,-0.00000544,0.00000
 197,-0.00000086,0.00000120,0.00000138,0.00000057,0.00000165,0.00188124
 ,-0.00169465,0.00053600,0.00021602,0.00124666,-0.00039344,-0.00060893,
 0.00097162,0.00039160,-0.00197444,-0.00100305,-0.00017435,0.00193364,0
 .00589055,-0.01528752,0.03890010,-0.03925385,-0.31870828,0.00016397,0.
 00002483,0.00003902,-0.00024364,-0.00107478,-0.00235816,0.00246789,-0.
 00153493,-0.00842448,-0.04244937,0.03636900,0.34437781,0.00038292,0.00
 001034,-0.00011235,-0.00029015,0.00001227,0.00012216,-0.00000851,-0.00
 000379,-0.00009440,0.00000296,-0.00000344,0.00001010,0.00000399,0.0000
 0576,0.00001119,0.00000013,0.00000013,-0.00000004,0.00000323,0.0000018
 7,-0.00000074,0.00000055,0.00000047,0.00000031,0.00000003,0.00000005,0
 .00000012,-0.00000023,-0.00000005,-0.00000007,-0.00000076,-0.00000129,
 -0.00000018,-0.00000088,-0.00000071,-0.00000075,0.00000389,0.00000207,
 0.00000355,-0.00000038,0.00000023,-0.00000021,-0.00000033,-0.00000108,
 -0.00000007,0.00000009,0.00000002,0.00000057,-0.00000102,0.00000045,-0
 .00000078,-0.00000631,0.00000090,0.00000077,-0.00000292,-0.00000108,0.
 00000225,0.00000646,-0.00000113,-0.00000244,0.00000178,0.00000015,0.00
 002078,-0.00000883,0.00000044,0.00000603,-0.00000115,0.00000039,-0.000
 00185,-0.00000079,-0.00000015,-0.00000173,0.00217926,-0.00231691,0.001
 04565,-0.02808834,-0.01050741,0.01391425,-0.00046555,0.00425404,-0.002
 25146,-0.00123839,0.00021675,0.00041383,-0.00030370,0.00011002,-0.0001
 1845,0.00015076,-0.00010761,-0.00001978,-0.23342454,-0.08129151,0.1061
 6302,0.00000845,-0.00003634,0.00002394,0.00000244,0.00004263,-0.000016
 59,-0.00000435,0.00004196,-0.00003727,0.25689744,-0.00037475,-0.000012
 32,0.00009214,0.00029483,-0.00001174,-0.00011560,0.00000729,0.00000461
 ,0.00009601,-0.00000350,0.00000416,-0.00001176,-0.00000395,-0.00000544
 ,-0.00001126,-0.00000019,-0.00000007,0.00000002,-0.00000338,-0.0000012
 7,0.00000156,-0.00000057,-0.00000032,-0.00000031,0.00000017,-0.0000000
 6,-0.00000016,0.00000014,0.00000010,0.00000004,0.00000033,0.00000107,0
 .00000015,0.00000082,0.00000069,0.00000095,-0.00000322,-0.00000280,-0.
 00000293,0.00000035,-0.00000006,0.00000019,0.00000018,0.00000095,0.000
 00004,0.00000016,0.00000006,-0.00000048,0.00000067,-0.00000037,0.00000
 057,0.00000595,-0.00000041,-0.00000176,0.00000259,0.00000147,-0.000002
 92,-0.00000562,0.00000025,0.00000329,-0.00000130,-0.00000118,-0.000021
 12,0.00000850,-0.00000049,-0.00000598,0.00000054,0.00000012,0.00000165
 ,0.00000073,-0.00000016,0.00000169,0.00023784,0.00121010,-0.00018723,0
 .02542973,0.00723539,-0.01409183,0.00126179,-0.00335540,0.00215137,0.0
 0207441,-0.00003814,-0.00013227,-0.00023052,0.00020883,-0.00036340,-0.
 00012792,0.00001875,-0.00005198,-0.09538357,-0.09280065,0.05674477,-0.
 00000015,0.00003644,-0.00001459,0.00000293,-0.00004297,0.00001378,0.00
 000473,-0.00001648,0.00001459,0.08832994,0.09492517,0.00011692,-0.0000
 0660,-0.00004420,-0.00009319,0.00000722,0.00004061,-0.00000482,0.00000
 446,-0.00002819,0.00000091,-0.00000260,0.00000356,0.00000058,0.0000013
 4,0.00000351,0.00000015,-0.00000019,0.00000019,0.00000010,0.00000066,0
 .00000021,0.00000009,0.00000027,0.00000019,0.00000013,-0.00000003,-0.0
 0000006,-0.00000013,0.00000002,0.00000002,-0.00000076,-0.00000046,-0.0
 0000036,-0.00000087,-0.00000052,-0.00000047,0.00000095,0.00000063,0.00
 000104,0.,-0.00000004,0.,-0.00000020,-0.00000030,-0.00000007,0.0000001
 4,0.00000024,0.00000006,-0.00000027,0.00000012,-0.00000028,0.00000045,
 -0.00000073,-0.00000052,0.00000022,-0.00000037,-0.00000017,-0.00000039
 ,0.00000066,0.00000053,0.00000132,-0.00000104,0.00000754,-0.00000303,0
 .00000016,0.00000187,0.00000020,0.,-0.00000038,-0.00000047,-0.00000017
 ,-0.00000059,-0.00046623,0.00050726,0.00071499,-0.00858275,-0.00345840
 ,0.00152881,-0.00045826,0.00131678,0.00005614,-0.00073507,0.00039106,0
 .00065396,0.00010784,-0.00046065,-0.00020984,-0.00000623,-0.00005970,-
 0.00009493,0.11493747,0.05259822,-0.11466122,0.00000384,-0.00000453,0.
 00001557,-0.00000192,-0.00001010,0.00000575,-0.00000561,0.00001622,-0.
 00001580,-0.11838352,-0.05794952,0.11605830,0.00018819,-0.00000673,-0.
 00000963,-0.00014135,0.00000628,0.00004369,0.00000454,0.00000152,-0.00
 005101,0.00000390,-0.00000330,0.00000574,0.00000184,0.00000094,0.00000
 398,0.00000038,-0.00000006,0.00000023,0.00000191,0.00000115,-0.0000017
 3,0.00000057,0.00000026,0.00000045,-0.00000008,0.00000005,0.00000009,-
 0.00000022,-0.00000017,-0.00000001,0.00000013,-0.00000018,-0.00000006,
 -0.00000057,-0.00000053,-0.00000058,0.00000123,0.00000262,0.00000008,0
 .,-0.00000012,0.00000003,-0.00000012,-0.00000060,-0.00000048,-0.000000
 25,0.00000013,0.00000058,-0.00000049,-0.00000012,-0.00000024,-0.000002
 85,-0.00000100,0.00000166,-0.00000128,-0.00000175,0.00000214,0.0000023
 6,0.00000143,-0.00000258,0.00000041,0.00000174,0.00000906,-0.00000363,
 0.00000031,0.00000304,-0.00000031,-0.00000041,-0.00000038,-0.00000087,
 0.00000005,-0.00000128,-0.00121016,-0.00336244,0.00027870,-0.01031353,
 0.00933111,-0.03066203,0.00214642,-0.00055285,-0.00010889,0.00070496,0
 .00127056,-0.00032670,-0.00290526,0.00184106,0.00009240,0.00007492,-0.
 00011926,0.00056747,-0.05436804,0.00098280,-0.03570804,-0.00001017,0.0
 0011870,-0.00003713,-0.00006266,0.00016063,-0.00005268,0.00001933,0.00
 001603,-0.00004857,0.00747357,-0.00011742,0.02503747,0.05929786,-0.000
 19961,0.00002380,0.00003191,0.00015283,-0.00001894,-0.00005431,-0.0000
 0040,0.00000348,0.00005198,-0.00000222,0.00000148,-0.00000369,-0.00000
 161,-0.00000428,-0.00000635,-0.00000005,-0.00000035,-0.00000004,-0.000
 00193,-0.00000097,0.00000022,-0.00000016,-0.00000032,0.00000004,0.0000
 0003,-0.00000008,-0.00000010,0.00000008,0.00000004,0.00000004,0.000000
 24,0.00000070,-0.00000005,0.00000037,0.00000024,0.00000008,-0.00000200
 ,-0.00000049,-0.00000219,0.00000030,-0.00000030,0.00000021,0.,0.000000
 82,0.00000001,-0.00000009,0.00000013,-0.00000043,0.00000065,-0.0000002
 7,0.00000038,0.00000470,-0.00000154,-0.00000023,0.00000226,-0.00000015
 ,-0.00000111,-0.00000529,0.00000245,0.00000147,-0.00000037,0.00000003,
 -0.00000970,0.00000411,0.00000009,-0.00000316,0.00000083,-0.00000048,0
 .00000104,-0.00000008,-0.00000007,0.00000060,0.00325722,0.00106143,0.0
 0130780,0.00777350,-0.00788104,0.02715440,-0.00200299,0.00099705,0.000
 20541,-0.00009805,-0.00087233,0.00023549,0.00087624,-0.00177488,-0.000
 82365,0.00009215,0.00000719,-0.00041333,0.00109449,-0.04683046,0.00644
 411,0.00002197,-0.00010427,0.00003887,0.00004114,-0.00008235,0.0000408
 5,-0.00002845,0.00001306,0.00001154,0.00268573,-0.00075348,0.01088232,
 -0.00961760,0.05224421,0.00008649,-0.00001453,-0.00003166,-0.00006591,
 0.00000954,0.00003272,-0.00000263,0.00000001,-0.00002779,0.00000134,-0
 .00000217,0.00000375,0.00000078,0.00000174,0.00000333,0.00000015,0.000
 00016,0.00000027,0.00000172,0.00000057,-0.00000119,-0.00000014,-0.0000
 0013,-0.00000026,-0.00000015,0.00000001,0.00000014,-0.00000003,-0.0000
 0006,-0.00000002,0.00000039,-0.00000009,-0.00000002,0.00000002,0.00000
 018,-0.00000012,0.00000072,0.00000035,0.00000050,-0.00000010,0.0000001
 2,-0.00000007,0.00000010,-0.00000029,-0.00000005,-0.00000017,-0.000000
 37,0.00000036,-0.00000020,0.00000008,-0.00000012,-0.00000306,0.0000005
 4,0.00000170,-0.00000138,-0.00000073,0.00000186,0.00000282,-0.00000046
 ,-0.00000234,0.00000007,0.00000084,0.00000604,-0.00000213,0.00000014,0
 .00000154,0.00000024,-0.00000022,-0.00000039,0.,0.00000016,-0.00000057
 ,-0.00082131,-0.00108651,0.00007668,-0.00188540,0.00395660,-0.00087723
 ,0.00136270,-0.00051432,0.00011011,-0.00035933,0.00082765,-0.00010762,
 -0.00016564,-0.00041033,0.00041756,-0.00007345,-0.00007766,-0.00009422
 ,-0.04370526,0.01346839,-0.32882217,0.00000022,0.00001887,-0.00000601,
 -0.00000073,-0.00002402,0.00001494,-0.00000248,0.00002390,0.00000562,-
 0.00296916,-0.00094193,-0.01032653,0.04883470,-0.01651058,0.34862966,0
 .00016520,-0.00003991,-0.00005560,-0.00012005,0.00001764,0.00005444,-0
 .00000325,0.00000457,-0.00004203,0.00000378,-0.00000262,0.00000471,0.0
 0000061,0.00000203,0.00000428,0.00000030,-0.00000028,-0.00000001,0.000
 00130,0.00000182,-0.00000074,0.00000037,0.00000016,0.00000046,-0.00000
 007,-0.00000002,0.00000011,-0.00000021,-0.00000012,0.00000003,0.000000
 39,-0.00000040,-0.00000043,-0.00000079,-0.00000072,-0.00000090,0.00000
 135,0.00000208,0.00000077,0.00000010,-0.00000011,-0.00000008,-0.000000
 07,-0.00000028,-0.00000034,-0.00000029,0.00000048,0.00000051,-0.000000
 33,-0.00000012,-0.00000024,-0.00000114,-0.00000142,0.00000116,-0.00000
 052,-0.00000134,0.00000136,0.00000081,0.00000176,-0.00000127,-0.000000
 25,-0.00000011,0.00001011,-0.00000367,0.00000008,0.00000271,-0.0000002
 0,-0.00000042,-0.00000058,-0.00000065,-0.00000004,-0.00000109,-0.00072
 304,-0.00080570,0.00297095,0.00233222,0.03495463,0.00855170,0.00184411
 ,-0.00056896,-0.00023265,0.00058576,0.00053265,-0.00102586,-0.00295371
 ,0.00168124,-0.00082697,-0.00017121,-0.00061653,-0.00023082,-0.0685260
 8,-0.07282849,-0.02848043,-0.00003175,0.00008319,-0.00007219,0.0000383
 4,0.00002953,0.00001235,-0.00007530,0.00017123,-0.00009861,-0.00327082
 ,-0.02140857,-0.01146508,-0.00090066,-0.00404795,-0.00023377,0.0718094
 5,-0.00021407,0.00001930,0.00003595,0.00016023,-0.00001256,-0.00005503
 ,0.00000036,-0.00000353,0.00005136,-0.00000186,0.00000164,-0.00000575,
 -0.00000183,-0.00000187,-0.00000524,-0.00000015,0.00000004,0.00000013,
 -0.00000144,-0.00000126,0.00000003,-0.00000060,-0.00000036,-0.00000058
 ,-0.00000010,-0.00000002,-0.00000005,0.00000022,0.00000005,0.00000005,
 0.00000017,0.00000071,0.00000015,0.00000051,0.00000077,0.00000075,-0.0
 0000191,-0.00000219,-0.00000141,0.00000010,0.,0.00000009,0.00000027,0.
 00000058,0.00000025,0.,-0.00000031,-0.00000043,0.00000060,-0.00000003,
 0.00000044,0.00000227,0.00000027,-0.00000022,0.00000127,0.00000073,-0.
 00000098,-0.00000249,-0.00000007,0.00000117,0.00000029,0.00000083,-0.0
 0001002,0.00000424,-0.00000003,-0.00000339,0.00000079,-0.00000015,0.00
 000091,0.00000098,0.00000029,0.00000097,0.00153887,0.00002182,-0.00306
 640,0.00065191,-0.02443882,-0.00267037,-0.00260693,0.00121422,0.000167
 79,0.00031811,-0.00092662,0.00105043,0.00163640,-0.00014489,0.00057497
 ,0.00014245,0.00025588,-0.00001350,-0.06312763,-0.27464006,-0.09369082
 ,0.00002542,-0.00006823,0.00005749,-0.00001234,-0.00001522,0.00001144,
 0.00004186,-0.00006179,0.00002730,-0.00144412,-0.00660434,-0.00377171,
 0.00004716,0.00397086,0.00127453,0.06284099,0.30143436,0.00006588,-0.0
 0000946,-0.00000574,-0.00005128,0.00000727,0.00001471,-0.00000050,-0.0
 0000632,-0.00001213,-0.00000017,0.00000063,-0.00000089,0.00000117,0.00
 000195,0.00000141,-0.00000013,0.00000014,-0.00000025,-0.00000050,-0.00
 000044,0.00000151,0.00000005,0.00000052,-0.00000003,0.00000019,0.00000
 002,-0.00000011,0.00000003,0.00000015,-0.00000005,-0.00000073,-0.00000
 056,0.00000031,0.00000012,-0.00000031,0.00000026,0.00000100,-0.0000002
 8,0.00000155,-0.00000023,0.00000014,-0.00000006,-0.00000013,-0.0000002
 9,0.00000016,0.00000033,0.00000046,-0.00000024,-0.00000029,0.00000017,
 -0.00000018,-0.00000001,0.00000108,-0.00000207,-0.00000017,0.00000135,
 -0.00000140,0.00000088,-0.00000215,0.00000160,0.00000014,0.00000134,0.
 00000144,-0.00000119,-0.00000020,0.00000084,-0.00000096,0.00000066,-0.
 00000046,0.00000043,-0.00000021,0.00000017,-0.00149182,0.00195004,0.00
 051815,0.00220191,0.00993014,0.00296721,0.00047248,-0.00013523,0.00028
 724,-0.00003549,-0.00000577,0.00010041,0.00002192,-0.00009939,-0.00115
 712,-0.00014396,-0.00007219,-0.00007146,-0.02659107,-0.09784078,-0.087
 06672,-0.00001522,0.00002775,-0.00001528,0.00001788,-0.00002043,0.0000
 0952,-0.00000841,0.00002614,-0.00000312,0.00227332,0.01478419,0.006290
 76,-0.00786949,-0.02857984,-0.00900839,0.03115405,0.10003970,0.0871484
 5\\0.00000484,-0.00000892,0.00000664,0.00001048,0.00000376,-0.00000146
 ,-0.00000296,0.00000114,-0.00000048,0.00000384,0.00000615,-0.00000035,
 -0.00000141,0.00000510,-0.00000329,-0.00000022,0.00000078,0.00000085,-
 0.00000042,-0.00000057,0.00000673,0.00000378,0.00000301,-0.00000236,0.
 00000131,0.00000377,0.00000045,-0.00000190,0.00000233,0.00000243,-0.00
 000453,0.00000247,0.00000266,-0.00000086,-0.00000209,0.00000568,-0.000
 00111,0.00000392,0.00000166,-0.00000066,-0.00000108,-0.00000210,0.0000
 0040,0.00000060,-0.00000130,0.00000017,-0.00000304,-0.00000013,-0.0000
 0040,-0.00000148,0.00000125,-0.00000264,-0.00000283,-0.00000573,0.0000
 0007,0.00000642,-0.00000016,0.00000022,0.00000515,0.00001280,0.0000023
 9,0.00000158,-0.00000122,0.00000105,0.00000716,0.00000073,0.00000122,0
 .00000450,-0.00000001,-0.00000125,0.00000575,0.00000023,-0.00000804,0.
 00001398,-0.00000814,-0.00002116,-0.00003697,0.00002764,0.00001234,0.0
 0002463,-0.00002377,0.00000608,0.00000091,-0.00000952,-0.00000170,-0.0
 0001511,0.00000880,-0.00000529,0.00000522,-0.00001201,0.00000797,-0.00
 000824,0.00000066,0.00000140,-0.00000488,-0.00000313,0.00000111,-0.000
 00553,-0.00000469,0.00000205,-0.00000707,-0.00000228,-0.00000187,-0.00
 000478,0.00000015,-0.00000160,-0.00000218,0.00000054,-0.00000274,-0.00
 000356,0.00000222\\\@


 THE NUMBERS ARE MEANINGLESS, BUT THE TRENDS ARE IMPORTANT.
     -- LARRY BURGGRAF
 Job cpu time:       0 days 20 hours 44 minutes 25.2 seconds.
 File lengths (MBytes):  RWF=    975 Int=      0 D2E=      0 Chk=     29 Scr=      1
 Normal termination of Gaussian 09 at Fri Dec 17 01:59:19 2021.
