 Entering Gaussian System, Link 0=g09
 Input=NHC10.gjf
 Output=NHC10.log
 Initial command:
 /usr/local/gqt/g09/l1.exe "/usr/local/gqt/lixogaussian/Gau-4321.inp" -scrdir="/usr/local/gqt/lixogaussian/"
 Entering Link 1 = /usr/local/gqt/g09/l1.exe PID=      4323.
  
 Copyright (c) 1988,1990,1992,1993,1995,1998,2003,2009,2013,
            Gaussian, Inc.  All Rights Reserved.
  
 This is part of the Gaussian(R) 09 program.  It is based on
 the Gaussian(R) 03 system (copyright 2003, Gaussian, Inc.),
 the Gaussian(R) 98 system (copyright 1998, Gaussian, Inc.),
 the Gaussian(R) 94 system (copyright 1995, Gaussian, Inc.),
 the Gaussian 92(TM) system (copyright 1992, Gaussian, Inc.),
 the Gaussian 90(TM) system (copyright 1990, Gaussian, Inc.),
 the Gaussian 88(TM) system (copyright 1988, Gaussian, Inc.),
 the Gaussian 86(TM) system (copyright 1986, Carnegie Mellon
 University), and the Gaussian 82(TM) system (copyright 1983,
 Carnegie Mellon University). Gaussian is a federally registered
 trademark of Gaussian, Inc.
  
 This software contains proprietary and confidential information,
 including trade secrets, belonging to Gaussian, Inc.
  
 This software is provided under written license and may be
 used, copied, transmitted, or stored only in accord with that
 written license.
  
 The following legend is applicable only to US Government
 contracts under FAR:
  
                    RESTRICTED RIGHTS LEGEND
  
 Use, reproduction and disclosure by the US Government is
 subject to restrictions as set forth in subparagraphs (a)
 and (c) of the Commercial Computer Software - Restricted
 Rights clause in FAR 52.227-19.
  
 Gaussian, Inc.
 340 Quinnipiac St., Bldg. 40, Wallingford CT 06492
  
  
 ---------------------------------------------------------------
 Warning -- This program may not be used in any manner that
 competes with the business of Gaussian, Inc. or will provide
 assistance to any competitor of Gaussian, Inc.  The licensee
 of this program is prohibited from giving any competitor of
 Gaussian, Inc. access to this program.  By using this program,
 the user acknowledges that Gaussian, Inc. is engaged in the
 business of creating and licensing software in the field of
 computational chemistry and represents and warrants to the
 licensee that it is not a competitor of Gaussian, Inc. and that
 it will not use this program in any manner prohibited above.
 ---------------------------------------------------------------
  

 Cite this work as:
 Gaussian 09, Revision D.01,
 M. J. Frisch, G. W. Trucks, H. B. Schlegel, G. E. Scuseria, 
 M. A. Robb, J. R. Cheeseman, G. Scalmani, V. Barone, B. Mennucci, 
 G. A. Petersson, H. Nakatsuji, M. Caricato, X. Li, H. P. Hratchian, 
 A. F. Izmaylov, J. Bloino, G. Zheng, J. L. Sonnenberg, M. Hada, 
 M. Ehara, K. Toyota, R. Fukuda, J. Hasegawa, M. Ishida, T. Nakajima, 
 Y. Honda, O. Kitao, H. Nakai, T. Vreven, J. A. Montgomery, Jr., 
 J. E. Peralta, F. Ogliaro, M. Bearpark, J. J. Heyd, E. Brothers, 
 K. N. Kudin, V. N. Staroverov, T. Keith, R. Kobayashi, J. Normand, 
 K. Raghavachari, A. Rendell, J. C. Burant, S. S. Iyengar, J. Tomasi, 
 M. Cossi, N. Rega, J. M. Millam, M. Klene, J. E. Knox, J. B. Cross, 
 V. Bakken, C. Adamo, J. Jaramillo, R. Gomperts, R. E. Stratmann, 
 O. Yazyev, A. J. Austin, R. Cammi, C. Pomelli, J. W. Ochterski, 
 R. L. Martin, K. Morokuma, V. G. Zakrzewski, G. A. Voth, 
 P. Salvador, J. J. Dannenberg, S. Dapprich, A. D. Daniels, 
 O. Farkas, J. B. Foresman, J. V. Ortiz, J. Cioslowski, 
 and D. J. Fox, Gaussian, Inc., Wallingford CT, 2013.
 
 ******************************************
 Gaussian 09:  ES64L-G09RevD.01 24-Apr-2013
                19-Jun-2021 
 ******************************************
 %nprocshared=16
 Will use up to   16 processors via shared memory.
 %mem=25GB
 %chk=NHC10.chk
 ----------------------------------------------------------
 #p opt freq n12sx/6-311+g(d,p) scrf=(iefpcm,solvent=water)
 ----------------------------------------------------------
 1/14=-1,18=20,19=15,26=3,38=1/1,3;
 2/9=110,12=2,17=6,18=5,40=1/2;
 3/5=4,6=6,7=111,11=2,16=1,25=1,30=1,70=2201,71=1,72=1,74=-69/1,2,3;
 4//1;
 5/5=2,38=5,53=1/2;
 6/7=2,8=2,9=2,10=2,28=1/1;
 7//1,2,3,16;
 1/14=-1,18=20,19=15,26=3/3(2);
 2/9=110/2;
 99//99;
 2/9=110/2;
 3/5=4,6=6,7=111,11=2,16=1,25=1,30=1,70=2205,71=1,72=1,74=-69/1,2,3;
 4/5=5,16=3,69=1/1;
 5/5=2,38=5,53=1/2;
 7//1,2,3,16;
 1/14=-1,18=20,19=15,26=3/3(-5);
 2/9=110/2;
 6/7=2,8=2,9=2,10=2,19=2,28=1/1;
 99/9=1/99;
 Leave Link    1 at Sat Jun 19 11:18:32 2021, MaxMem=  3355443200 cpu:         0.7
 (Enter /usr/local/gqt/g09/l101.exe)
 -----
 TITLE
 -----
 Symbolic Z-matrix:
 Charge =  0 Multiplicity = 1
 6                     0.58362   1.18326  -0.07604 
 6                    -0.76091   0.99787  -0.03945 
 7                    -0.95324  -0.38364  -0.05373 
 6                     0.21845  -1.06485  -0.09558 
 7                     1.14991  -0.08471  -0.11895 
 6                    -1.83113   2.02729  -0.02765 
 6                     1.37635   2.43656  -0.08792 
 6                    -2.22339  -1.11085   0.01477 
 6                    -3.1549   -0.78739  -1.14299 
 6                    -2.89715  -0.9624    1.37079 
 6                     2.59293  -0.33671  -0.09605 
 6                     3.22192   0.14497   1.19832 
 6                     3.26086   0.27232  -1.31968 
 1                    -1.39035   3.01148   0.10219 
 1                    -2.39548   2.04596  -0.95905 
 1                    -2.54119   1.88186   0.7834 
 1                     0.72119   3.29854  -0.00725 
 1                     2.08003   2.47958   0.74335 
 1                     1.95016   2.54716  -1.0084 
 1                    -1.91175  -2.14727  -0.08836 
 1                    -2.63293  -0.86668  -2.09435 
 1                    -3.97989  -1.49715  -1.14974 
 1                    -3.58136   0.20921  -1.06417 
 1                    -2.20622  -1.21591   2.17201 
 1                    -3.74938  -1.63689   1.43027 
 1                    -3.2647    0.04713   1.53978 
 1                     2.70962  -1.41717  -0.14296 
 1                     2.73756  -0.30943   2.06002 
 1                     4.27582  -0.12627   1.2139 
 1                     3.14022   1.22453   1.28979 
 1                     2.81423  -0.10319  -2.23849 
 1                     4.32164   0.02893  -1.33233 
 1                     3.15486   1.35565  -1.30457 
 
 NAtoms=     33 NQM=       33 NQMF=       0 NMMI=      0 NMMIF=      0
                NMic=       0 NMicF=      0.
                    Isotopes and Nuclear Properties:
 (Nuclear quadrupole moments (NQMom) in fm**2, nuclear magnetic moments (NMagM)
  in nuclear magnetons)

  Atom         1           2           3           4           5           6           7           8           9          10
 IAtWgt=          12          12          14          12          14          12          12          12          12          12
 AtmWgt=  12.0000000  12.0000000  14.0030740  12.0000000  14.0030740  12.0000000  12.0000000  12.0000000  12.0000000  12.0000000
 NucSpn=           0           0           2           0           2           0           0           0           0           0
 AtZEff=   0.0000000   0.0000000   0.0000000   0.0000000   0.0000000   0.0000000   0.0000000   0.0000000   0.0000000   0.0000000
 NQMom=    0.0000000   0.0000000   2.0440000   0.0000000   2.0440000   0.0000000   0.0000000   0.0000000   0.0000000   0.0000000
 NMagM=    0.0000000   0.0000000   0.4037610   0.0000000   0.4037610   0.0000000   0.0000000   0.0000000   0.0000000   0.0000000
 AtZNuc=   6.0000000   6.0000000   7.0000000   6.0000000   7.0000000   6.0000000   6.0000000   6.0000000   6.0000000   6.0000000

  Atom        11          12          13          14          15          16          17          18          19          20
 IAtWgt=          12          12          12           1           1           1           1           1           1           1
 AtmWgt=  12.0000000  12.0000000  12.0000000   1.0078250   1.0078250   1.0078250   1.0078250   1.0078250   1.0078250   1.0078250
 NucSpn=           0           0           0           1           1           1           1           1           1           1
 AtZEff=   0.0000000   0.0000000   0.0000000   0.0000000   0.0000000   0.0000000   0.0000000   0.0000000   0.0000000   0.0000000
 NQMom=    0.0000000   0.0000000   0.0000000   0.0000000   0.0000000   0.0000000   0.0000000   0.0000000   0.0000000   0.0000000
 NMagM=    0.0000000   0.0000000   0.0000000   2.7928460   2.7928460   2.7928460   2.7928460   2.7928460   2.7928460   2.7928460
 AtZNuc=   6.0000000   6.0000000   6.0000000   1.0000000   1.0000000   1.0000000   1.0000000   1.0000000   1.0000000   1.0000000

  Atom        21          22          23          24          25          26          27          28          29          30
 IAtWgt=           1           1           1           1           1           1           1           1           1           1
 AtmWgt=   1.0078250   1.0078250   1.0078250   1.0078250   1.0078250   1.0078250   1.0078250   1.0078250   1.0078250   1.0078250
 NucSpn=           1           1           1           1           1           1           1           1           1           1
 AtZEff=   0.0000000   0.0000000   0.0000000   0.0000000   0.0000000   0.0000000   0.0000000   0.0000000   0.0000000   0.0000000
 NQMom=    0.0000000   0.0000000   0.0000000   0.0000000   0.0000000   0.0000000   0.0000000   0.0000000   0.0000000   0.0000000
 NMagM=    2.7928460   2.7928460   2.7928460   2.7928460   2.7928460   2.7928460   2.7928460   2.7928460   2.7928460   2.7928460
 AtZNuc=   1.0000000   1.0000000   1.0000000   1.0000000   1.0000000   1.0000000   1.0000000   1.0000000   1.0000000   1.0000000

  Atom        31          32          33
 IAtWgt=           1           1           1
 AtmWgt=   1.0078250   1.0078250   1.0078250
 NucSpn=           1           1           1
 AtZEff=   0.0000000   0.0000000   0.0000000
 NQMom=    0.0000000   0.0000000   0.0000000
 NMagM=    2.7928460   2.7928460   2.7928460
 AtZNuc=   1.0000000   1.0000000   1.0000000
 Leave Link  101 at Sat Jun 19 11:18:33 2021, MaxMem=  3355443200 cpu:         6.7
 (Enter /usr/local/gqt/g09/l103.exe)

 GradGradGradGradGradGradGradGradGradGradGradGradGradGradGradGradGradGrad
 Berny optimization.
 Initialization pass.
                           ----------------------------
                           !    Initial Parameters    !
                           ! (Angstroms and Degrees)  !
 --------------------------                            --------------------------
 ! Name  Definition              Value          Derivative Info.                !
 --------------------------------------------------------------------------------
 ! R1    R(1,2)                  1.3577         estimate D2E/DX2                !
 ! R2    R(1,5)                  1.3893         estimate D2E/DX2                !
 ! R3    R(1,7)                  1.483          estimate D2E/DX2                !
 ! R4    R(2,3)                  1.3949         estimate D2E/DX2                !
 ! R5    R(2,6)                  1.485          estimate D2E/DX2                !
 ! R6    R(3,4)                  1.356          estimate D2E/DX2                !
 ! R7    R(3,8)                  1.4652         estimate D2E/DX2                !
 ! R8    R(4,5)                  1.3523         estimate D2E/DX2                !
 ! R9    R(5,11)                 1.465          estimate D2E/DX2                !
 ! R10   R(6,14)                 1.0862         estimate D2E/DX2                !
 ! R11   R(6,15)                 1.0892         estimate D2E/DX2                !
 ! R12   R(6,16)                 1.0877         estimate D2E/DX2                !
 ! R13   R(7,17)                 1.0857         estimate D2E/DX2                !
 ! R14   R(7,18)                 1.09           estimate D2E/DX2                !
 ! R15   R(7,19)                 1.0903         estimate D2E/DX2                !
 ! R16   R(8,9)                  1.5208         estimate D2E/DX2                !
 ! R17   R(8,10)                 1.5214         estimate D2E/DX2                !
 ! R18   R(8,20)                 1.0872         estimate D2E/DX2                !
 ! R19   R(9,21)                 1.088          estimate D2E/DX2                !
 ! R20   R(9,22)                 1.0883         estimate D2E/DX2                !
 ! R21   R(9,23)                 1.0869         estimate D2E/DX2                !
 ! R22   R(10,24)                1.0879         estimate D2E/DX2                !
 ! R23   R(10,25)                1.0885         estimate D2E/DX2                !
 ! R24   R(10,26)                1.0876         estimate D2E/DX2                !
 ! R25   R(11,12)                1.5176         estimate D2E/DX2                !
 ! R26   R(11,13)                1.5213         estimate D2E/DX2                !
 ! R27   R(11,27)                1.0878         estimate D2E/DX2                !
 ! R28   R(12,28)                1.0879         estimate D2E/DX2                !
 ! R29   R(12,29)                1.0884         estimate D2E/DX2                !
 ! R30   R(12,30)                1.0865         estimate D2E/DX2                !
 ! R31   R(13,31)                1.0884         estimate D2E/DX2                !
 ! R32   R(13,32)                1.0884         estimate D2E/DX2                !
 ! R33   R(13,33)                1.0886         estimate D2E/DX2                !
 ! A1    A(2,1,5)              106.2509         estimate D2E/DX2                !
 ! A2    A(2,1,7)              130.1618         estimate D2E/DX2                !
 ! A3    A(5,1,7)              123.5837         estimate D2E/DX2                !
 ! A4    A(1,2,3)              105.7532         estimate D2E/DX2                !
 ! A5    A(1,2,6)              128.2602         estimate D2E/DX2                !
 ! A6    A(3,2,6)              125.9636         estimate D2E/DX2                !
 ! A7    A(2,3,4)              112.2552         estimate D2E/DX2                !
 ! A8    A(2,3,8)              127.6329         estimate D2E/DX2                !
 ! A9    A(4,3,8)              120.0772         estimate D2E/DX2                !
 ! A10   A(3,4,5)              103.3904         estimate D2E/DX2                !
 ! A11   A(1,5,4)              112.345          estimate D2E/DX2                !
 ! A12   A(1,5,11)             123.9154         estimate D2E/DX2                !
 ! A13   A(4,5,11)             123.6063         estimate D2E/DX2                !
 ! A14   A(2,6,14)             109.6708         estimate D2E/DX2                !
 ! A15   A(2,6,15)             112.2409         estimate D2E/DX2                !
 ! A16   A(2,6,16)             112.5639         estimate D2E/DX2                !
 ! A17   A(14,6,15)            107.2743         estimate D2E/DX2                !
 ! A18   A(14,6,16)            107.273          estimate D2E/DX2                !
 ! A19   A(15,6,16)            107.5579         estimate D2E/DX2                !
 ! A20   A(1,7,17)             110.3526         estimate D2E/DX2                !
 ! A21   A(1,7,18)             111.8606         estimate D2E/DX2                !
 ! A22   A(1,7,19)             111.9505         estimate D2E/DX2                !
 ! A23   A(17,7,18)            107.553          estimate D2E/DX2                !
 ! A24   A(17,7,19)            107.4437         estimate D2E/DX2                !
 ! A25   A(18,7,19)            107.4632         estimate D2E/DX2                !
 ! A26   A(3,8,9)              112.9438         estimate D2E/DX2                !
 ! A27   A(3,8,10)             112.1562         estimate D2E/DX2                !
 ! A28   A(3,8,20)             102.7221         estimate D2E/DX2                !
 ! A29   A(9,8,10)             112.7385         estimate D2E/DX2                !
 ! A30   A(9,8,20)             107.8261         estimate D2E/DX2                !
 ! A31   A(10,8,20)            107.7287         estimate D2E/DX2                !
 ! A32   A(8,9,21)             110.8739         estimate D2E/DX2                !
 ! A33   A(8,9,22)             109.289          estimate D2E/DX2                !
 ! A34   A(8,9,23)             112.343          estimate D2E/DX2                !
 ! A35   A(21,9,22)            108.1022         estimate D2E/DX2                !
 ! A36   A(21,9,23)            108.5704         estimate D2E/DX2                !
 ! A37   A(22,9,23)            107.5189         estimate D2E/DX2                !
 ! A38   A(8,10,24)            110.6353         estimate D2E/DX2                !
 ! A39   A(8,10,25)            109.5707         estimate D2E/DX2                !
 ! A40   A(8,10,26)            112.2546         estimate D2E/DX2                !
 ! A41   A(24,10,25)           108.2165         estimate D2E/DX2                !
 ! A42   A(24,10,26)           108.4513         estimate D2E/DX2                !
 ! A43   A(25,10,26)           107.5833         estimate D2E/DX2                !
 ! A44   A(5,11,12)            111.5293         estimate D2E/DX2                !
 ! A45   A(5,11,13)            110.5497         estimate D2E/DX2                !
 ! A46   A(5,11,27)            106.0121         estimate D2E/DX2                !
 ! A47   A(12,11,13)           112.1477         estimate D2E/DX2                !
 ! A48   A(12,11,27)           107.9145         estimate D2E/DX2                !
 ! A49   A(13,11,27)           108.413          estimate D2E/DX2                !
 ! A50   A(11,12,28)           111.0057         estimate D2E/DX2                !
 ! A51   A(11,12,29)           109.5394         estimate D2E/DX2                !
 ! A52   A(11,12,30)           110.8552         estimate D2E/DX2                !
 ! A53   A(28,12,29)           108.4021         estimate D2E/DX2                !
 ! A54   A(28,12,30)           108.3513         estimate D2E/DX2                !
 ! A55   A(29,12,30)           108.6169         estimate D2E/DX2                !
 ! A56   A(11,13,31)           111.1435         estimate D2E/DX2                !
 ! A57   A(11,13,32)           110.3482         estimate D2E/DX2                !
 ! A58   A(11,13,33)           110.1501         estimate D2E/DX2                !
 ! A59   A(31,13,32)           108.2376         estimate D2E/DX2                !
 ! A60   A(31,13,33)           108.3663         estimate D2E/DX2                !
 ! A61   A(32,13,33)           108.5181         estimate D2E/DX2                !
 ! D1    D(5,1,2,3)              0.3484         estimate D2E/DX2                !
 ! D2    D(5,1,2,6)           -177.9681         estimate D2E/DX2                !
 ! D3    D(7,1,2,3)            179.6574         estimate D2E/DX2                !
 ! D4    D(7,1,2,6)              1.3409         estimate D2E/DX2                !
 ! D5    D(2,1,5,4)             -0.7062         estimate D2E/DX2                !
 ! D6    D(2,1,5,11)          -176.6363         estimate D2E/DX2                !
 ! D7    D(7,1,5,4)            179.9277         estimate D2E/DX2                !
 ! D8    D(7,1,5,11)             3.9977         estimate D2E/DX2                !
 ! D9    D(2,1,7,17)             3.0826         estimate D2E/DX2                !
 ! D10   D(2,1,7,18)           122.7799         estimate D2E/DX2                !
 ! D11   D(2,1,7,19)          -116.5359         estimate D2E/DX2                !
 ! D12   D(5,1,7,17)          -177.7138         estimate D2E/DX2                !
 ! D13   D(5,1,7,18)           -58.0165         estimate D2E/DX2                !
 ! D14   D(5,1,7,19)            62.6678         estimate D2E/DX2                !
 ! D15   D(1,2,3,4)              0.0994         estimate D2E/DX2                !
 ! D16   D(1,2,3,8)            177.9322         estimate D2E/DX2                !
 ! D17   D(6,2,3,4)            178.4662         estimate D2E/DX2                !
 ! D18   D(6,2,3,8)             -3.7009         estimate D2E/DX2                !
 ! D19   D(1,2,6,14)            -8.7368         estimate D2E/DX2                !
 ! D20   D(1,2,6,15)           110.3988         estimate D2E/DX2                !
 ! D21   D(1,2,6,16)          -128.0776         estimate D2E/DX2                !
 ! D22   D(3,2,6,14)           173.2652         estimate D2E/DX2                !
 ! D23   D(3,2,6,15)           -67.5993         estimate D2E/DX2                !
 ! D24   D(3,2,6,16)            53.9244         estimate D2E/DX2                !
 ! D25   D(2,3,4,5)             -0.5075         estimate D2E/DX2                !
 ! D26   D(8,3,4,5)           -178.5243         estimate D2E/DX2                !
 ! D27   D(2,3,8,9)             60.7424         estimate D2E/DX2                !
 ! D28   D(2,3,8,10)           -67.9817         estimate D2E/DX2                !
 ! D29   D(2,3,8,20)           176.6145         estimate D2E/DX2                !
 ! D30   D(4,3,8,9)           -121.5755         estimate D2E/DX2                !
 ! D31   D(4,3,8,10)           109.7004         estimate D2E/DX2                !
 ! D32   D(4,3,8,20)            -5.7033         estimate D2E/DX2                !
 ! D33   D(3,4,5,1)              0.739          estimate D2E/DX2                !
 ! D34   D(3,4,5,11)           176.6838         estimate D2E/DX2                !
 ! D35   D(1,5,11,12)           62.8852         estimate D2E/DX2                !
 ! D36   D(1,5,11,13)          -62.6146         estimate D2E/DX2                !
 ! D37   D(1,5,11,27)         -179.9065         estimate D2E/DX2                !
 ! D38   D(4,5,11,12)         -112.5941         estimate D2E/DX2                !
 ! D39   D(4,5,11,13)          121.906          estimate D2E/DX2                !
 ! D40   D(4,5,11,27)            4.6142         estimate D2E/DX2                !
 ! D41   D(3,8,9,21)            49.441          estimate D2E/DX2                !
 ! D42   D(3,8,9,22)           168.5045         estimate D2E/DX2                !
 ! D43   D(3,8,9,23)           -72.2433         estimate D2E/DX2                !
 ! D44   D(10,8,9,21)          177.8635         estimate D2E/DX2                !
 ! D45   D(10,8,9,22)          -63.073          estimate D2E/DX2                !
 ! D46   D(10,8,9,23)           56.1791         estimate D2E/DX2                !
 ! D47   D(20,8,9,21)          -63.3472         estimate D2E/DX2                !
 ! D48   D(20,8,9,22)           55.7163         estimate D2E/DX2                !
 ! D49   D(20,8,9,23)          174.9684         estimate D2E/DX2                !
 ! D50   D(3,8,10,24)          -52.0216         estimate D2E/DX2                !
 ! D51   D(3,8,10,25)         -171.2568         estimate D2E/DX2                !
 ! D52   D(3,8,10,26)           69.278          estimate D2E/DX2                !
 ! D53   D(9,8,10,24)          179.1467         estimate D2E/DX2                !
 ! D54   D(9,8,10,25)           59.9114         estimate D2E/DX2                !
 ! D55   D(9,8,10,26)          -59.5537         estimate D2E/DX2                !
 ! D56   D(20,8,10,24)          60.3006         estimate D2E/DX2                !
 ! D57   D(20,8,10,25)         -58.9346         estimate D2E/DX2                !
 ! D58   D(20,8,10,26)        -178.3998         estimate D2E/DX2                !
 ! D59   D(5,11,12,28)          55.9814         estimate D2E/DX2                !
 ! D60   D(5,11,12,29)         175.6572         estimate D2E/DX2                !
 ! D61   D(5,11,12,30)         -64.495          estimate D2E/DX2                !
 ! D62   D(13,11,12,28)       -179.409          estimate D2E/DX2                !
 ! D63   D(13,11,12,29)        -59.7332         estimate D2E/DX2                !
 ! D64   D(13,11,12,30)         60.1146         estimate D2E/DX2                !
 ! D65   D(27,11,12,28)        -60.0695         estimate D2E/DX2                !
 ! D66   D(27,11,12,29)         59.6063         estimate D2E/DX2                !
 ! D67   D(27,11,12,30)        179.4541         estimate D2E/DX2                !
 ! D68   D(5,11,13,31)         -56.2941         estimate D2E/DX2                !
 ! D69   D(5,11,13,32)        -176.3808         estimate D2E/DX2                !
 ! D70   D(5,11,13,33)          63.8231         estimate D2E/DX2                !
 ! D71   D(12,11,13,31)        178.5557         estimate D2E/DX2                !
 ! D72   D(12,11,13,32)         58.469          estimate D2E/DX2                !
 ! D73   D(12,11,13,33)        -61.3271         estimate D2E/DX2                !
 ! D74   D(27,11,13,31)         59.5089         estimate D2E/DX2                !
 ! D75   D(27,11,13,32)        -60.5778         estimate D2E/DX2                !
 ! D76   D(27,11,13,33)        179.6261         estimate D2E/DX2                !
 --------------------------------------------------------------------------------
 Trust Radius=3.00D-01 FncErr=1.00D-07 GrdErr=1.00D-06
 Number of steps in this run=    180 maximum allowed number of steps=    198.
 GradGradGradGradGradGradGradGradGradGradGradGradGradGradGradGradGradGrad

 Leave Link  103 at Sat Jun 19 11:18:33 2021, MaxMem=  3355443200 cpu:         0.1
 (Enter /usr/local/gqt/g09/l202.exe)
                          Input orientation:                          
 ---------------------------------------------------------------------
 Center     Atomic      Atomic             Coordinates (Angstroms)
 Number     Number       Type             X           Y           Z
 ---------------------------------------------------------------------
      1          6           0        0.583620    1.183262   -0.076037
      2          6           0       -0.760913    0.997869   -0.039448
      3          7           0       -0.953240   -0.383635   -0.053729
      4          6           0        0.218449   -1.064852   -0.095575
      5          7           0        1.149908   -0.084709   -0.118948
      6          6           0       -1.831127    2.027285   -0.027647
      7          6           0        1.376349    2.436560   -0.087915
      8          6           0       -2.223393   -1.110845    0.014774
      9          6           0       -3.154903   -0.787388   -1.142990
     10          6           0       -2.897145   -0.962399    1.370793
     11          6           0        2.592934   -0.336709   -0.096048
     12          6           0        3.221923    0.144968    1.198321
     13          6           0        3.260861    0.272322   -1.319682
     14          1           0       -1.390345    3.011482    0.102191
     15          1           0       -2.395476    2.045960   -0.959051
     16          1           0       -2.541193    1.881862    0.783396
     17          1           0        0.721186    3.298536   -0.007253
     18          1           0        2.080029    2.479582    0.743348
     19          1           0        1.950157    2.547160   -1.008399
     20          1           0       -1.911747   -2.147274   -0.088361
     21          1           0       -2.632925   -0.866677   -2.094353
     22          1           0       -3.979890   -1.497151   -1.149743
     23          1           0       -3.581356    0.209205   -1.064167
     24          1           0       -2.206225   -1.215907    2.172012
     25          1           0       -3.749383   -1.636886    1.430271
     26          1           0       -3.264704    0.047125    1.539783
     27          1           0        2.709618   -1.417168   -0.142965
     28          1           0        2.737563   -0.309427    2.060021
     29          1           0        4.275821   -0.126274    1.213900
     30          1           0        3.140223    1.224531    1.289787
     31          1           0        2.814235   -0.103194   -2.238487
     32          1           0        4.321640    0.028926   -1.332329
     33          1           0        3.154856    1.355646   -1.304573
 ---------------------------------------------------------------------
                    Distance matrix (angstroms):
                    1          2          3          4          5
     1  C    0.000000
     2  C    1.357748   0.000000
     3  N    2.194904   1.394900   0.000000
     4  C    2.277663   2.284101   1.355973   0.000000
     5  N    1.389343   2.197620   2.125286   1.352347   0.000000
     6  C    2.558460   1.484990   2.565911   3.710349   3.654507
     7  C    1.483009   2.576833   3.658094   3.687910   2.531607
     8  C    3.626361   2.566800   1.465202   2.444767   3.528455
     9  C    4.358716   3.183730   2.489342   3.543101   4.480381
    10  C    4.337384   3.224115   2.478507   3.444947   4.400944
    11  C    2.519535   3.610068   3.546737   2.483621   1.465043
    12  C    3.108486   4.257052   4.390790   3.486931   2.466007
    13  C    3.089350   4.282532   4.448771   3.541574   2.454660
    14  H    2.696422   2.114446   3.426688   4.386779   4.011008
    15  H    3.224744   2.148479   2.966915   4.153955   4.220814
    16  H    3.315286   2.151258   2.890476   4.131747   4.278534
    17  H    2.120858   2.736918   4.045274   4.393142   3.412129
    18  H    2.142680   3.298362   4.246653   4.090511   2.860816
    19  H    2.144048   3.269414   4.234462   4.108368   2.891065
    20  H    4.161668   3.349438   2.007575   2.389440   3.691726
    21  H    4.315323   3.347177   2.686786   3.487796   4.338609
    22  H    5.400285   4.221338   3.406138   4.350196   5.419627
    23  H    4.390013   3.102731   2.877401   4.123095   4.833703
    24  H    4.311957   3.446779   2.686368   3.323223   4.218025
    25  H    5.384897   4.246523   3.404601   4.289420   5.367717
    26  H    4.325654   3.109156   2.840370   4.005402   4.717793
    27  H    3.359552   4.229386   3.806926   2.516406   2.051517
    28  H    3.380878   4.284405   4.253877   3.400470   2.705374
    29  H    4.124460   5.310675   5.386668   4.365538   3.398462
    30  H    2.898862   4.127603   4.598660   3.961978   2.767671
    31  H    3.362558   4.339331   4.364135   3.500708   2.694952
    32  H    4.108961   5.333173   5.443288   4.422905   3.397807
    33  H    2.854868   4.130593   4.633159   3.992866   2.738640
                    6          7          8          9         10
     6  C    0.000000
     7  C    3.234044   0.000000
     8  C    3.162836   5.054975   0.000000
     9  C    3.304354   5.660324   1.520774   0.000000
    10  C    3.468464   5.651858   1.521435   2.533017   0.000000
    11  C    5.016519   3.028393   4.879403   5.859764   5.716999
    12  C    5.529867   3.211221   5.712207   6.856743   6.220852
    13  C    5.538735   3.122909   5.811279   6.505093   6.832586
    14  H    1.086182   2.832185   4.206565   4.369846   4.435260
    15  H    1.089198   3.890772   3.308076   2.939120   3.837977
    16  H    1.087719   4.051420   3.106135   3.348507   2.926014
    17  H    2.851455   1.085701   5.302233   5.745323   5.757334
    18  H    4.012000   1.089961   5.651675   6.452587   6.083846
    19  H    3.940844   1.090311   5.643262   6.099095   6.440023
    20  H    4.175779   5.641198   1.087173   2.122962   2.122279
    21  H    3.645431   5.568792   2.162349   1.088044   3.476523
    22  H    4.277608   6.729848   2.142572   1.088307   2.794888
    23  H    2.728203   5.522048   2.179612   1.086864   2.787442
    24  H    3.936685   5.593087   2.159863   3.474602   1.087929
    25  H    4.385360   6.720936   2.146857   2.774297   1.088476
    26  H    2.903965   5.467922   2.179650   2.811715   1.087564
    27  H    5.700520   4.078218   4.945030   5.982415   5.825296
    28  H    5.539992   3.742590   5.425531   6.723755   5.714135
    29  H    6.593487   4.082864   6.681846   7.823532   7.223237
    30  H    5.205225   2.545256   5.987322   7.042360   6.421763
    31  H    5.568315   3.625303   5.609834   6.107277   6.810653
    32  H    6.599407   4.002500   6.778733   7.523358   7.771773
    33  H    5.190537   2.410751   6.062163   6.665716   7.011251
                   11         12         13         14         15
    11  C    0.000000
    12  C    1.517574   0.000000
    13  C    1.521291   2.521522   0.000000
    14  H    5.207321   5.539983   5.581974   0.000000
    15  H    5.595187   6.310562   5.938854   1.751786   0.000000
    16  H    5.661690   6.033446   6.377882   1.750581   1.756213
    17  H    4.089784   4.201438   4.162978   2.133762   3.491196
    18  H    2.983145   2.638436   3.243833   3.568963   4.807945
    19  H    3.092288   3.501075   2.643810   3.550769   4.374719
    20  H    4.854931   5.767537   5.841786   5.188539   4.309908
    21  H    5.619937   6.792964   6.052615   4.626978   3.135083
    22  H    6.757138   7.750875   7.455762   5.347977   3.885919
    23  H    6.273526   7.169908   6.847277   3.743485   2.188842
    24  H    5.380429   5.680215   6.655508   4.777095   4.525389
    25  H    6.651699   7.199160   7.768580   5.379236   4.594048
    26  H    6.093865   6.496345   7.128131   3.790423   3.315881
    27  H    1.087754   2.121738   2.131411   6.040095   6.222640
    28  H    2.161086   1.087937   3.469102   5.648111   6.403962
    29  H    2.142978   1.088355   2.758272   6.571670   7.344829
    30  H    2.158133   1.086507   2.780393   5.012946   6.031251
    31  H    2.166459   3.469789   1.088434   5.732231   5.779005
    32  H    2.156503   2.761708   1.088418   6.601535   7.023348
    33  H    2.154149   2.781136   1.088603   5.037820   5.603758
                   16         17         18         19         20
    16  H    0.000000
    17  H    3.643516   0.000000
    18  H    4.659889   1.755147   0.000000
    19  H    4.881124   1.754203   1.757854   0.000000
    20  H    4.170144   6.049443   6.167156   6.148047   0.000000
    21  H    3.980493   5.740649   6.439094   5.817063   2.486771
    22  H    4.150254   6.812049   7.491383   7.179268   2.413795
    23  H    2.700594   5.401194   6.361840   6.005562   3.048407
    24  H    3.411251   5.805095   5.836925   6.446022   2.462407
    25  H    3.776209   6.812551   7.169325   7.479178   2.437959
    26  H    2.112309   5.371435   5.925987   6.319666   3.049054
    27  H    6.269989   5.119585   4.045565   4.128154   4.679001
    28  H    5.856345   4.621341   3.153498   4.265595   5.441443
    29  H    7.119664   5.084877   3.439972   4.182652   6.638247
    30  H    5.741690   3.440284   1.731404   2.906418   6.228223
    31  H    6.461643   4.575044   4.012621   3.046986   5.579982
    32  H    7.416748   5.040778   3.916500   3.474243   6.718513
    33  H    6.089458   3.373516   2.571472   1.720094   6.278542
                   21         22         23         24         25
    21  H    0.000000
    22  H    1.761846   0.000000
    23  H    1.765878   1.754367   0.000000
    24  H    4.301849   3.776115   3.794046   0.000000
    25  H    3.776596   2.594057   3.107814   1.763162   0.000000
    26  H    3.800148   3.182739   2.628135   1.765033   1.755790
    27  H    5.714344   6.765318   6.562779   5.437383   6.651469
    28  H    6.812598   7.539061   7.068116   5.027453   6.651255
    29  H    7.695681   8.696141   8.187635   6.642454   8.169006
    30  H    7.011048   8.003429   7.193860   5.942943   7.461509
    31  H    5.502293   7.020585   6.510008   6.774632   7.674182
    32  H    7.053280   8.442609   7.909599   7.512858   8.691853
    33  H    6.249871   7.685508   6.837301   6.887723   8.006444
                   26         27         28         29         30
    26  H    0.000000
    27  H    6.377172   0.000000
    28  H    6.035311   2.465971   0.000000
    29  H    7.549555   2.441409   1.765135   0.000000
    30  H    6.517045   3.035914   1.763072   1.766357   0.000000
    31  H    7.159009   2.475618   4.304135   3.749099   3.783892
    32  H    8.111842   2.470706   3.759232   2.551366   3.114597
    33  H    7.142363   3.039091   3.777181   3.129754   2.597713
                   31         32         33
    31  H    0.000000
    32  H    1.763760   0.000000
    33  H    1.765342   1.767015   0.000000
 Stoichiometry    C11H20N2
 Framework group  C1[X(C11H20N2)]
 Deg. of freedom    93
 Full point group                 C1      NOp   1
 Largest Abelian subgroup         C1      NOp   1
 Largest concise Abelian subgroup C1      NOp   1
                         Standard orientation:                         
 ---------------------------------------------------------------------
 Center     Atomic      Atomic             Coordinates (Angstroms)
 Number     Number       Type             X           Y           Z
 ---------------------------------------------------------------------
      1          6           0        0.702570    0.851165    0.039185
      2          6           0       -0.654275    0.900276    0.045480
      3          7           0       -1.081666   -0.421254   -0.083520
      4          6           0       -0.044413   -1.290562   -0.167633
      5          7           0        1.042482   -0.488684   -0.100598
      6          6           0       -1.530770    2.096080    0.129169
      7          6           0        1.699702    1.944417    0.138388
      8          6           0       -2.459560   -0.919446   -0.088753
      9          6           0       -3.291839   -0.349147   -1.226656
     10          6           0       -3.131518   -0.762710    1.267223
     11          6           0        2.419343   -0.988950   -0.082157
     12          6           0        3.089217   -0.726969    1.254130
     13          6           0        3.212930   -0.411485   -1.244517
     14          1           0       -0.930193    2.975318    0.343731
     15          1           0       -2.059801    2.285575   -0.803874
     16          1           0       -2.275470    2.013356    0.917656
     17          1           0        1.201274    2.898240    0.281704
     18          1           0        2.379096    1.799084    0.978220
     19          1           0        2.306979    2.025242   -0.763533
     20          1           0       -2.328922   -1.982979   -0.272533
     21          1           0       -2.767585   -0.443284   -2.175411
     22          1           0       -4.226483   -0.901780   -1.300482
     23          1           0       -3.541787    0.697165   -1.071639
     24          1           0       -2.515097   -1.194550    2.052798
     25          1           0       -4.088576   -1.281162    1.261974
     26          1           0       -3.323514    0.278984    1.513816
     27          1           0        2.348995   -2.066183   -0.215682
     28          1           0        2.512179   -1.156231    2.070444
     29          1           0        4.079776   -1.177837    1.259349
     30          1           0        3.192738    0.339807    1.432373
     31          1           0        2.731487   -0.630408   -2.195818
     32          1           0        4.215780   -0.834005   -1.265082
     33          1           0        3.295090    0.669194   -1.142339
 ---------------------------------------------------------------------
 Rotational constants (GHZ):      1.4718573      0.4946122      0.4420550
 Leave Link  202 at Sat Jun 19 11:18:33 2021, MaxMem=  3355443200 cpu:         0.0
 (Enter /usr/local/gqt/g09/l301.exe)
 Standard basis: 6-311+G(d,p) (5D, 7F)
 Ernie: Thresh=  0.10000D-02 Tol=  0.10000D-05 Strict=F.
 There are   419 symmetry adapted cartesian basis functions of A   symmetry.
 There are   406 symmetry adapted basis functions of A   symmetry.
   406 basis functions,   628 primitive gaussians,   419 cartesian basis functions
    50 alpha electrons       50 beta electrons
       nuclear repulsion energy       859.7563746574 Hartrees.
 IExCor= 5547 DFT=T Ex+Corr=N12SX ExCW=0 ScaHFX=  0.250000
 ScaDFX=  1.000000  1.000000  1.000000  1.000000 ScalE2=  1.000000  1.000000
 IRadAn=      0 IRanWt=     -1 IRanGd=            0 ICorTp=0 IEmpDi=  4
  HFx wShort=  0.110000 wLong=  0.000000 cFull=  0.000000 cShort=  1.000000 cLong=  0.000000
  DFx wShort=  0.110000 wLong=  0.000000 cFull=  0.000000 cShort=  1.000000 cLong=  0.000000
 NAtoms=   33 NActive=   33 NUniq=   33 SFac= 1.00D+00 NAtFMM=   60 NAOKFM=F Big=F
 Integral buffers will be    131072 words long.
 Raffenetti 2 integral format.
 Two-electron integral symmetry is turned on.
 ------------------------------------------------------------------------------
 Polarizable Continuum Model (PCM)
 =================================
 Model                : PCM (using non-symmetric T matrix).
 Atomic radii         : UFF (Universal Force Field).
 Polarization charges : Total charges.
 Charge compensation  : None.
 Solution method      : On-the-fly selection.
 Cavity type          : Scaled VdW (van der Waals Surface) (Alpha=1.100).
 Cavity algorithm     : GePol (No added spheres)
                        Default sphere list used, NSphG=   33.
                        Lebedev-Laikov grids with approx.  5.0 points / Ang**2.
                        Smoothing algorithm: Karplus/York (Gamma=1.0000).
                        Polarization charges: spherical gaussians, with
                                              point-specific exponents (IZeta= 3).
                        Self-potential: point-specific (ISelfS= 7).
                        Self-field    : sphere-specific E.n sum rule (ISelfD= 2).
 1st derivatives      : Analytical E(r).r(x)/FMM algorithm (CHGder, D1EAlg=3).
                        Cavity 1st derivative terms included.
 Solvent              : Water, Eps=  78.355300 Eps(inf)=   1.777849
 ------------------------------------------------------------------------------
 GePol: Number of generator spheres                  =      33
 GePol: Total number of spheres                      =      33
 GePol: Number of exposed spheres                    =      33 (100.00%)
 GePol: Number of points                             =    2151
 GePol: Average weight of points                     =       0.13
 GePol: Minimum weight of points                     =   0.80D-10
 GePol: Maximum weight of points                     =    0.20577
 GePol: Number of points with low weight             =     155
 GePol: Fraction of low-weight points (<1% of avg)   =       7.21%
 GePol: Cavity surface area                          =    278.837 Ang**2
 GePol: Cavity volume                                =    298.815 Ang**3
 Leave Link  301 at Sat Jun 19 11:18:33 2021, MaxMem=  3355443200 cpu:         0.7
 (Enter /usr/local/gqt/g09/l302.exe)
 NPDir=0 NMtPBC=     1 NCelOv=     1 NCel=       1 NClECP=     1 NCelD=      1
         NCelK=      1 NCelE2=     1 NClLst=     1 CellRange=     0.0.
 One-electron integrals computed using PRISM.
 NBasis=   406 RedAO= T EigKep=  5.10D-06  NBF=   406
 NBsUse=   405 1.00D-06 EigRej=  5.38D-07 NBFU=   405
 Precomputing XC quadrature grid using
 IXCGrd= 4 IRadAn=           0 IRanWt=          -1 IRanGd=           0 AccXCQ= 0.00D+00.
 Generated NRdTot=       0 NPtTot=           0 NUsed=           0 NTot=          32
 NSgBfM=   419   419   419   419   419 MxSgAt=    33 MxSgA2=    33.
 Leave Link  302 at Sat Jun 19 11:18:33 2021, MaxMem=  3355443200 cpu:         7.6
 (Enter /usr/local/gqt/g09/l303.exe)
 DipDrv:  MaxL=1.
 Leave Link  303 at Sat Jun 19 11:18:33 2021, MaxMem=  3355443200 cpu:         0.9
 (Enter /usr/local/gqt/g09/l401.exe)
 ExpMin= 4.38D-02 ExpMax= 6.29D+03 ExpMxC= 9.49D+02 IAcc=2 IRadAn=         4 AccDes= 0.00D+00
 Harris functional with IExCor= 5547 and IRadAn=       4 diagonalized for initial guess.
 HarFok:  IExCor= 5547 AccDes= 0.00D+00 IRadAn=         4 IDoV= 1 UseB2=F ITyADJ=14
 ICtDFT=  3500011 ScaDFX=  1.000000  1.000000  1.000000  1.000000
 FoFCou: FMM=F IPFlag=           0 FMFlag=      100000 FMFlg1=           0
         NFxFlg=           0 DoJE=T BraDBF=F KetDBF=T FulRan=T
         wScrn=  0.000000 ICntrl=     500 IOpCl=  0 I1Cent=   200000004 NGrid=           0
         NMat0=    1 NMatS0=      1 NMatT0=    0 NMatD0=    1 NMtDS0=    0 NMtDT0=    0
 Petite list used in FoFCou.
 Harris En= -523.080052698824    
 JPrj=0 DoOrth=F DoCkMO=F.
 Leave Link  401 at Sat Jun 19 11:18:35 2021, MaxMem=  3355443200 cpu:        25.7
 (Enter /usr/local/gqt/g09/l502.exe)
 Closed shell SCF:
 Using DIIS extrapolation, IDIIS=  1040.
 Integral symmetry usage will be decided dynamically.
 IVT=      555081 IEndB=      555081 NGot=  3355443200 MDV=  3355080740
 LenX=  3355080740 LenY=  3354904738
 Requested convergence on RMS density matrix=1.00D-08 within 128 cycles.
 Requested convergence on MAX density matrix=1.00D-06.
 Requested convergence on             energy=1.00D-06.
 No special actions if energy rises.
 Fock matrices will be formed incrementally for  20 cycles.

 Cycle   1  Pass 1  IDiag  1:
 FoFJK:  IHMeth= 1 ICntrl=       0 DoSepK=T KAlg= 0 I1Cent=   0 FoldK=F
 IRaf=         1 NMat=   1 IRICut=       1 DoRegI=T DoRafI=F ISym2E= 0.
 FoFCou: FMM=F IPFlag=           0 FMFlag=      100000 FMFlg1=           0
         NFxFlg=           0 DoJE=T BraDBF=F KetDBF=F FulRan=T
         wScrn=  0.000000 ICntrl=     500 IOpCl=  0 I1Cent=           0 NGrid=           0
         NMat0=    1 NMatS0=      1 NMatT0=    0 NMatD0=    1 NMtDS0=    0 NMtDT0=    0
 Symmetry not used in FoFCou.
 Inv3:  Mode=1 IEnd=    13880403.
 Iteration    1 A*A^-1 deviation from unit magnitude is 5.11D-15 for   2149.
 Iteration    1 A*A^-1 deviation from orthogonality  is 3.60D-15 for   1816   1261.
 Iteration    1 A^-1*A deviation from unit magnitude is 5.33D-15 for   2149.
 Iteration    1 A^-1*A deviation from orthogonality  is 7.36D-12 for   1733   1723.
 E= -540.330847640096    
 DIIS: error= 9.51D-02 at cycle   1 NSaved=   1.
 NSaved= 1 IEnMin= 1 EnMin= -540.330847640096     IErMin= 1 ErrMin= 9.51D-02
 ErrMax= 9.51D-02  0.00D+00 EMaxC= 1.00D-01 BMatC= 1.35D+00 BMatP= 1.35D+00
 IDIUse=3 WtCom= 4.92D-02 WtEn= 9.51D-01
 Coeff-Com:  0.100D+01
 Coeff-En:   0.100D+01
 Coeff:      0.100D+01
 Gap=     0.231 Goal=   None    Shift=    0.000
 GapD=    0.231 DampG=1.000 DampE=0.500 DampFc=0.5000 IDamp=-1.
 Damping current iteration by 5.00D-01
 RMSDP=7.40D-03 MaxDP=7.46D-01              OVMax= 1.36D-01

 Cycle   2  Pass 1  IDiag  1:
 RMSU=  2.39D-03    CP:  8.57D-01
 E= -540.424989628937     Delta-E=       -0.094141988841 Rises=F Damp=T
 DIIS: error= 4.16D-02 at cycle   2 NSaved=   2.
 NSaved= 2 IEnMin= 2 EnMin= -540.424989628937     IErMin= 2 ErrMin= 4.16D-02
 ErrMax= 4.16D-02  0.00D+00 EMaxC= 1.00D-01 BMatC= 2.81D-01 BMatP= 1.35D+00
 IDIUse=3 WtCom= 5.84D-01 WtEn= 4.16D-01
 Coeff-Com: -0.492D+00 0.149D+01
 Coeff-En:   0.374D-01 0.963D+00
 Coeff:     -0.272D+00 0.127D+01
 Gap=     0.243 Goal=   None    Shift=    0.000
 RMSDP=3.86D-03 MaxDP=2.86D-01 DE=-9.41D-02 OVMax= 1.67D-01

 Cycle   3  Pass 1  IDiag  1:
 RMSU=  2.68D-03    CP:  7.27D-01  1.45D+00
 E= -540.459269403173     Delta-E=       -0.034279774235 Rises=F Damp=F
 DIIS: error= 1.90D-02 at cycle   3 NSaved=   3.
 NSaved= 3 IEnMin= 3 EnMin= -540.459269403173     IErMin= 3 ErrMin= 1.90D-02
 ErrMax= 1.90D-02  0.00D+00 EMaxC= 1.00D-01 BMatC= 1.15D-01 BMatP= 2.81D-01
 IDIUse=3 WtCom= 8.10D-01 WtEn= 1.90D-01
 Coeff-Com: -0.346D+00 0.772D+00 0.574D+00
 Coeff-En:   0.000D+00 0.322D+00 0.678D+00
 Coeff:     -0.280D+00 0.686D+00 0.594D+00
 Gap=     0.209 Goal=   None    Shift=    0.000
 RMSDP=1.43D-03 MaxDP=7.55D-02 DE=-3.43D-02 OVMax= 9.45D-02

 Cycle   4  Pass 1  IDiag  1:
 RMSU=  4.06D-04    CP:  7.22D-01  1.71D+00  5.44D-01
 E= -540.547355935411     Delta-E=       -0.088086532238 Rises=F Damp=F
 DIIS: error= 5.50D-03 at cycle   4 NSaved=   4.
 NSaved= 4 IEnMin= 4 EnMin= -540.547355935411     IErMin= 4 ErrMin= 5.50D-03
 ErrMax= 5.50D-03  0.00D+00 EMaxC= 1.00D-01 BMatC= 8.89D-03 BMatP= 1.15D-01
 IDIUse=3 WtCom= 9.45D-01 WtEn= 5.50D-02
 Coeff-Com: -0.152D+00 0.344D+00 0.355D+00 0.454D+00
 Coeff-En:   0.000D+00 0.000D+00 0.146D-01 0.985D+00
 Coeff:     -0.144D+00 0.325D+00 0.336D+00 0.483D+00
 Gap=     0.205 Goal=   None    Shift=    0.000
 RMSDP=3.62D-04 MaxDP=1.93D-02 DE=-8.81D-02 OVMax= 2.23D-02

 Cycle   5  Pass 1  IDiag  1:
 RMSU=  1.82D-04    CP:  7.19D-01  1.69D+00  6.32D-01  5.36D-01
 E= -540.554289221140     Delta-E=       -0.006933285729 Rises=F Damp=F
 DIIS: error= 4.49D-04 at cycle   5 NSaved=   5.
 NSaved= 5 IEnMin= 5 EnMin= -540.554289221140     IErMin= 5 ErrMin= 4.49D-04
 ErrMax= 4.49D-04  0.00D+00 EMaxC= 1.00D-01 BMatC= 9.66D-05 BMatP= 8.89D-03
 IDIUse=3 WtCom= 9.96D-01 WtEn= 4.49D-03
 Coeff-Com: -0.138D-01 0.309D-01 0.489D-01 0.153D+00 0.781D+00
 Coeff-En:   0.000D+00 0.000D+00 0.000D+00 0.000D+00 0.100D+01
 Coeff:     -0.138D-01 0.308D-01 0.487D-01 0.153D+00 0.782D+00
 Gap=     0.204 Goal=   None    Shift=    0.000
 RMSDP=7.23D-05 MaxDP=4.22D-03 DE=-6.93D-03 OVMax= 3.53D-03

 Cycle   6  Pass 1  IDiag  1:
 RMSU=  5.35D-05    CP:  7.18D-01  1.69D+00  6.39D-01  6.06D-01  8.26D-01
 E= -540.554348668473     Delta-E=       -0.000059447334 Rises=F Damp=F
 DIIS: error= 2.58D-04 at cycle   6 NSaved=   6.
 NSaved= 6 IEnMin= 6 EnMin= -540.554348668473     IErMin= 6 ErrMin= 2.58D-04
 ErrMax= 2.58D-04  0.00D+00 EMaxC= 1.00D-01 BMatC= 2.29D-05 BMatP= 9.66D-05
 IDIUse=3 WtCom= 9.97D-01 WtEn= 2.58D-03
 Coeff-Com: -0.572D-03 0.985D-03 0.109D-01 0.645D-01 0.458D+00 0.466D+00
 Coeff-En:   0.000D+00 0.000D+00 0.000D+00 0.000D+00 0.166D+00 0.834D+00
 Coeff:     -0.570D-03 0.982D-03 0.109D-01 0.644D-01 0.457D+00 0.467D+00
 Gap=     0.204 Goal=   None    Shift=    0.000
 RMSDP=3.27D-05 MaxDP=1.94D-03 DE=-5.94D-05 OVMax= 1.90D-03

 Cycle   7  Pass 1  IDiag  1:
 RMSU=  1.92D-05    CP:  7.18D-01  1.69D+00  6.37D-01  5.87D-01  9.13D-01
                    CP:  6.76D-01
 E= -540.554367855571     Delta-E=       -0.000019187098 Rises=F Damp=F
 DIIS: error= 1.03D-04 at cycle   7 NSaved=   7.
 NSaved= 7 IEnMin= 7 EnMin= -540.554367855571     IErMin= 7 ErrMin= 1.03D-04
 ErrMax= 1.03D-04  0.00D+00 EMaxC= 1.00D-01 BMatC= 2.19D-06 BMatP= 2.29D-05
 IDIUse=3 WtCom= 9.99D-01 WtEn= 1.03D-03
 Coeff-Com:  0.117D-02-0.274D-02 0.907D-03 0.191D-01 0.170D+00 0.272D+00
 Coeff-Com:  0.540D+00
 Coeff-En:   0.000D+00 0.000D+00 0.000D+00 0.000D+00 0.000D+00 0.429D-01
 Coeff-En:   0.957D+00
 Coeff:      0.117D-02-0.273D-02 0.907D-03 0.191D-01 0.170D+00 0.271D+00
 Coeff:      0.540D+00
 Gap=     0.205 Goal=   None    Shift=    0.000
 RMSDP=8.86D-06 MaxDP=4.85D-04 DE=-1.92D-05 OVMax= 6.36D-04

 Cycle   8  Pass 1  IDiag  1:
 RMSU=  5.50D-06    CP:  7.18D-01  1.69D+00  6.37D-01  5.86D-01  9.19D-01
                    CP:  6.74D-01  6.57D-01
 E= -540.554369587053     Delta-E=       -0.000001731481 Rises=F Damp=F
 DIIS: error= 3.35D-05 at cycle   8 NSaved=   8.
 NSaved= 8 IEnMin= 8 EnMin= -540.554369587053     IErMin= 8 ErrMin= 3.35D-05
 ErrMax= 3.35D-05  0.00D+00 EMaxC= 1.00D-01 BMatC= 2.85D-07 BMatP= 2.19D-06
 IDIUse=1 WtCom= 1.00D+00 WtEn= 0.00D+00
 Coeff-Com:  0.673D-03-0.151D-02-0.654D-03 0.294D-02 0.383D-01 0.929D-01
 Coeff-Com:  0.315D+00 0.553D+00
 Coeff:      0.673D-03-0.151D-02-0.654D-03 0.294D-02 0.383D-01 0.929D-01
 Coeff:      0.315D+00 0.553D+00
 Gap=     0.205 Goal=   None    Shift=    0.000
 RMSDP=4.12D-06 MaxDP=2.72D-04 DE=-1.73D-06 OVMax= 2.35D-04

 Cycle   9  Pass 1  IDiag  1:
 RMSU=  2.23D-06    CP:  7.18D-01  1.69D+00  6.37D-01  5.89D-01  9.08D-01
                    CP:  6.83D-01  6.63D-01  5.42D-01
 E= -540.554369837118     Delta-E=       -0.000000250065 Rises=F Damp=F
 DIIS: error= 8.79D-06 at cycle   9 NSaved=   9.
 NSaved= 9 IEnMin= 9 EnMin= -540.554369837118     IErMin= 9 ErrMin= 8.79D-06
 ErrMax= 8.79D-06  0.00D+00 EMaxC= 1.00D-01 BMatC= 2.28D-08 BMatP= 2.85D-07
 IDIUse=1 WtCom= 1.00D+00 WtEn= 0.00D+00
 Coeff-Com:  0.151D-03-0.318D-03-0.259D-03-0.517D-03 0.306D-03 0.126D-01
 Coeff-Com:  0.901D-01 0.280D+00 0.617D+00
 Coeff:      0.151D-03-0.318D-03-0.259D-03-0.517D-03 0.306D-03 0.126D-01
 Coeff:      0.901D-01 0.280D+00 0.617D+00
 Gap=     0.204 Goal=   None    Shift=    0.000
 RMSDP=1.67D-06 MaxDP=1.06D-04 DE=-2.50D-07 OVMax= 6.67D-05

 Cycle  10  Pass 1  IDiag  1:
 RMSU=  8.14D-07    CP:  7.18D-01  1.69D+00  6.37D-01  5.88D-01  9.10D-01
                    CP:  6.85D-01  7.04D-01  6.48D-01  7.25D-01
 E= -540.554369857465     Delta-E=       -0.000000020348 Rises=F Damp=F
 DIIS: error= 2.70D-06 at cycle  10 NSaved=  10.
 NSaved=10 IEnMin=10 EnMin= -540.554369857465     IErMin=10 ErrMin= 2.70D-06
 ErrMax= 2.70D-06  0.00D+00 EMaxC= 1.00D-01 BMatC= 2.77D-09 BMatP= 2.28D-08
 IDIUse=1 WtCom= 1.00D+00 WtEn= 0.00D+00
 Coeff-Com:  0.393D-04-0.775D-04-0.959D-04-0.548D-03-0.253D-02-0.414D-04
 Coeff-Com:  0.273D-01 0.119D+00 0.346D+00 0.510D+00
 Coeff:      0.393D-04-0.775D-04-0.959D-04-0.548D-03-0.253D-02-0.414D-04
 Coeff:      0.273D-01 0.119D+00 0.346D+00 0.510D+00
 Gap=     0.205 Goal=   None    Shift=    0.000
 RMSDP=5.24D-07 MaxDP=5.96D-05 DE=-2.03D-08 OVMax= 2.24D-05

 Cycle  11  Pass 1  IDiag  1:
 RMSU=  1.97D-07    CP:  7.18D-01  1.69D+00  6.37D-01  5.88D-01  9.11D-01
                    CP:  6.86D-01  6.98D-01  6.50D-01  7.39D-01  6.31D-01
 E= -540.554369860273     Delta-E=       -0.000000002808 Rises=F Damp=F
 DIIS: error= 7.99D-07 at cycle  11 NSaved=  11.
 NSaved=11 IEnMin=11 EnMin= -540.554369860273     IErMin=11 ErrMin= 7.99D-07
 ErrMax= 7.99D-07  0.00D+00 EMaxC= 1.00D-01 BMatC= 1.27D-10 BMatP= 2.77D-09
 IDIUse=1 WtCom= 1.00D+00 WtEn= 0.00D+00
 Coeff-Com: -0.159D-05 0.415D-05-0.188D-05-0.165D-03-0.822D-03-0.138D-02
 Coeff-Com:  0.117D-03 0.130D-01 0.536D-01 0.180D+00 0.755D+00
 Coeff:     -0.159D-05 0.415D-05-0.188D-05-0.165D-03-0.822D-03-0.138D-02
 Coeff:      0.117D-03 0.130D-01 0.536D-01 0.180D+00 0.755D+00
 Gap=     0.205 Goal=   None    Shift=    0.000
 RMSDP=1.14D-07 MaxDP=6.16D-06 DE=-2.81D-09 OVMax= 2.71D-06

 Cycle  12  Pass 1  IDiag  1:
 RMSU=  5.68D-08    CP:  7.18D-01  1.69D+00  6.37D-01  5.88D-01  9.11D-01
                    CP:  6.85D-01  7.00D-01  6.58D-01  7.37D-01  6.86D-01
                    CP:  9.37D-01
 E= -540.554369860347     Delta-E=       -0.000000000074 Rises=F Damp=F
 DIIS: error= 1.24D-07 at cycle  12 NSaved=  12.
 NSaved=12 IEnMin=12 EnMin= -540.554369860347     IErMin=12 ErrMin= 1.24D-07
 ErrMax= 1.24D-07  0.00D+00 EMaxC= 1.00D-01 BMatC= 8.61D-12 BMatP= 1.27D-10
 IDIUse=1 WtCom= 1.00D+00 WtEn= 0.00D+00
 Coeff-Com: -0.202D-05 0.409D-05 0.397D-05-0.252D-04-0.635D-04-0.462D-03
 Coeff-Com: -0.199D-02-0.455D-02-0.969D-02 0.251D-01 0.273D+00 0.719D+00
 Coeff:     -0.202D-05 0.409D-05 0.397D-05-0.252D-04-0.635D-04-0.462D-03
 Coeff:     -0.199D-02-0.455D-02-0.969D-02 0.251D-01 0.273D+00 0.719D+00
 Gap=     0.205 Goal=   None    Shift=    0.000
 RMSDP=4.68D-08 MaxDP=4.69D-06 DE=-7.39D-11 OVMax= 9.89D-07

 Cycle  13  Pass 1  IDiag  1:
 RMSU=  2.20D-08    CP:  7.18D-01  1.69D+00  6.37D-01  5.88D-01  9.11D-01
                    CP:  6.85D-01  7.00D-01  6.58D-01  7.45D-01  7.07D-01
                    CP:  9.26D-01  9.30D-01
 E= -540.554369860371     Delta-E=       -0.000000000024 Rises=F Damp=F
 DIIS: error= 2.98D-08 at cycle  13 NSaved=  13.
 NSaved=13 IEnMin=13 EnMin= -540.554369860371     IErMin=13 ErrMin= 2.98D-08
 ErrMax= 2.98D-08  0.00D+00 EMaxC= 1.00D-01 BMatC= 8.60D-13 BMatP= 8.61D-12
 IDIUse=1 WtCom= 1.00D+00 WtEn= 0.00D+00
 Coeff-Com: -0.110D-05 0.217D-05 0.193D-05-0.138D-05 0.130D-04-0.138D-03
 Coeff-Com: -0.904D-03-0.288D-02-0.841D-02-0.212D-02 0.581D-01 0.315D+00
 Coeff-Com:  0.641D+00
 Coeff:     -0.110D-05 0.217D-05 0.193D-05-0.138D-05 0.130D-04-0.138D-03
 Coeff:     -0.904D-03-0.288D-02-0.841D-02-0.212D-02 0.581D-01 0.315D+00
 Coeff:      0.641D+00
 Gap=     0.205 Goal=   None    Shift=    0.000
 RMSDP=1.09D-08 MaxDP=6.04D-07 DE=-2.41D-11 OVMax= 3.17D-07

 Cycle  14  Pass 1  IDiag  1:
 RMSU=  4.59D-09    CP:  7.18D-01  1.69D+00  6.37D-01  5.88D-01  9.11D-01
                    CP:  6.85D-01  7.00D-01  6.58D-01  7.44D-01  7.11D-01
                    CP:  9.41D-01  9.63D-01  9.83D-01
 E= -540.554369860402     Delta-E=       -0.000000000031 Rises=F Damp=F
 DIIS: error= 1.44D-08 at cycle  14 NSaved=  14.
 NSaved=14 IEnMin=14 EnMin= -540.554369860402     IErMin=14 ErrMin= 1.44D-08
 ErrMax= 1.44D-08  0.00D+00 EMaxC= 1.00D-01 BMatC= 5.18D-14 BMatP= 8.60D-13
 IDIUse=1 WtCom= 1.00D+00 WtEn= 0.00D+00
 Coeff-Com: -0.383D-06 0.771D-06 0.586D-06 0.417D-06 0.606D-05-0.367D-04
 Coeff-Com: -0.254D-03-0.861D-03-0.286D-02-0.171D-02 0.913D-02 0.936D-01
 Coeff-Com:  0.270D+00 0.633D+00
 Coeff:     -0.383D-06 0.771D-06 0.586D-06 0.417D-06 0.606D-05-0.367D-04
 Coeff:     -0.254D-03-0.861D-03-0.286D-02-0.171D-02 0.913D-02 0.936D-01
 Coeff:      0.270D+00 0.633D+00
 Gap=     0.205 Goal=   None    Shift=    0.000
 RMSDP=2.47D-09 MaxDP=1.94D-07 DE=-3.12D-11 OVMax= 1.09D-07

 Error on total polarization charges =  0.01805
 SCF Done:  E(RN12SX) =  -540.554369860     A.U. after   14 cycles
            NFock= 14  Conv=0.25D-08     -V/T= 2.0061
 KE= 5.372709236966D+02 PE=-2.973499810145D+03 EE= 1.035918141930D+03
 Leave Link  502 at Sat Jun 19 11:21:49 2021, MaxMem=  3355443200 cpu:      3068.9
 (Enter /usr/local/gqt/g09/l601.exe)
 Copying SCF densities to generalized density rwf, IOpCl= 0 IROHF=0.

 **********************************************************************

            Population analysis using the SCF density.

 **********************************************************************

 Orbital symmetries:
       Occupied  (A) (A) (A) (A) (A) (A) (A) (A) (A) (A) (A) (A)
                 (A) (A) (A) (A) (A) (A) (A) (A) (A) (A) (A) (A)
                 (A) (A) (A) (A) (A) (A) (A) (A) (A) (A) (A) (A)
                 (A) (A) (A) (A) (A) (A) (A) (A) (A) (A) (A) (A)
                 (A) (A)
       Virtual   (A) (A) (A) (A) (A) (A) (A) (A) (A) (A) (A) (A)
                 (A) (A) (A) (A) (A) (A) (A) (A) (A) (A) (A) (A)
                 (A) (A) (A) (A) (A) (A) (A) (A) (A) (A) (A) (A)
                 (A) (A) (A) (A) (A) (A) (A) (A) (A) (A) (A) (A)
                 (A) (A) (A) (A) (A) (A) (A) (A) (A) (A) (A) (A)
                 (A) (A) (A) (A) (A) (A) (A) (A) (A) (A) (A) (A)
                 (A) (A) (A) (A) (A) (A) (A) (A) (A) (A) (A) (A)
                 (A) (A) (A) (A) (A) (A) (A) (A) (A) (A) (A) (A)
                 (A) (A) (A) (A) (A) (A) (A) (A) (A) (A) (A) (A)
                 (A) (A) (A) (A) (A) (A) (A) (A) (A) (A) (A) (A)
                 (A) (A) (A) (A) (A) (A) (A) (A) (A) (A) (A) (A)
                 (A) (A) (A) (A) (A) (A) (A) (A) (A) (A) (A) (A)
                 (A) (A) (A) (A) (A) (A) (A) (A) (A) (A) (A) (A)
                 (A) (A) (A) (A) (A) (A) (A) (A) (A) (A) (A) (A)
                 (A) (A) (A) (A) (A) (A) (A) (A) (A) (A) (A) (A)
                 (A) (A) (A) (A) (A) (A) (A) (A) (A) (A) (A) (A)
                 (A) (A) (A) (A) (A) (A) (A) (A) (A) (A) (A) (A)
                 (A) (A) (A) (A) (A) (A) (A) (A) (A) (A) (A) (A)
                 (A) (A) (A) (A) (A) (A) (A) (A) (A) (A) (A) (A)
                 (A) (A) (A) (A) (A) (A) (A) (A) (A) (A) (A) (A)
                 (A) (A) (A) (A) (A) (A) (A) (A) (A) (A) (A) (A)
                 (A) (A) (A) (A) (A) (A) (A) (A) (A) (A) (A) (A)
                 (A) (A) (A) (A) (A) (A) (A) (A) (A) (A) (A) (A)
                 (A) (A) (A) (A) (A) (A) (A) (A) (A) (A) (A) (A)
                 (A) (A) (A) (A) (A) (A) (A) (A) (A) (A) (A) (A)
                 (A) (A) (A) (A) (A) (A) (A) (A) (A) (A) (A) (A)
                 (A) (A) (A) (A) (A) (A) (A) (A) (A) (A) (A) (A)
                 (A) (A) (A) (A) (A) (A) (A) (A) (A) (A) (A) (A)
                 (A) (A) (A) (A) (A) (A) (A) (A) (A) (A) (A) (A)
                 (A) (A) (A) (A) (A) (A) (A)
 The electronic state is 1-A.
 Alpha  occ. eigenvalues --  -14.40033 -14.39988 -10.26164 -10.26086 -10.24997
 Alpha  occ. eigenvalues --  -10.24783 -10.22917 -10.21921 -10.21854 -10.20705
 Alpha  occ. eigenvalues --  -10.20695 -10.20640 -10.20560  -1.02285  -0.91738
 Alpha  occ. eigenvalues --   -0.81696  -0.78939  -0.76774  -0.73195  -0.69301
 Alpha  occ. eigenvalues --   -0.69224  -0.67478  -0.63767  -0.60207  -0.56730
 Alpha  occ. eigenvalues --   -0.53903  -0.48557  -0.47963  -0.46745  -0.44465
 Alpha  occ. eigenvalues --   -0.44060  -0.43275  -0.42691  -0.42540  -0.41958
 Alpha  occ. eigenvalues --   -0.40766  -0.40199  -0.39140  -0.38053  -0.37515
 Alpha  occ. eigenvalues --   -0.37002  -0.36724  -0.35962  -0.35134  -0.33974
 Alpha  occ. eigenvalues --   -0.32792  -0.32450  -0.26443  -0.21865  -0.21106
 Alpha virt. eigenvalues --   -0.00655   0.00346   0.00711   0.00980   0.01571
 Alpha virt. eigenvalues --    0.01937   0.02224   0.02596   0.03343   0.03813
 Alpha virt. eigenvalues --    0.04547   0.04651   0.05049   0.05105   0.06024
 Alpha virt. eigenvalues --    0.06549   0.06671   0.07410   0.08051   0.08212
 Alpha virt. eigenvalues --    0.08360   0.08400   0.08520   0.10001   0.10341
 Alpha virt. eigenvalues --    0.10689   0.10876   0.11375   0.12207   0.12961
 Alpha virt. eigenvalues --    0.13048   0.13762   0.14075   0.14531   0.15366
 Alpha virt. eigenvalues --    0.15552   0.16006   0.16598   0.16942   0.17069
 Alpha virt. eigenvalues --    0.18022   0.18210   0.18317   0.18920   0.19354
 Alpha virt. eigenvalues --    0.19899   0.20131   0.20890   0.21016   0.21394
 Alpha virt. eigenvalues --    0.21662   0.21697   0.21864   0.22250   0.22673
 Alpha virt. eigenvalues --    0.23471   0.24273   0.24361   0.24803   0.25598
 Alpha virt. eigenvalues --    0.25988   0.26252   0.26547   0.27441   0.27760
 Alpha virt. eigenvalues --    0.28279   0.28954   0.29614   0.29874   0.30493
 Alpha virt. eigenvalues --    0.30580   0.31241   0.31368   0.33142   0.33324
 Alpha virt. eigenvalues --    0.35213   0.35348   0.36232   0.36360   0.37876
 Alpha virt. eigenvalues --    0.39497   0.40088   0.40166   0.41656   0.42150
 Alpha virt. eigenvalues --    0.42411   0.43564   0.43894   0.46550   0.46951
 Alpha virt. eigenvalues --    0.48346   0.49244   0.49399   0.50097   0.50950
 Alpha virt. eigenvalues --    0.52060   0.53748   0.54259   0.55200   0.55522
 Alpha virt. eigenvalues --    0.55885   0.56755   0.58598   0.59813   0.60250
 Alpha virt. eigenvalues --    0.61654   0.62474   0.63892   0.63950   0.64500
 Alpha virt. eigenvalues --    0.65023   0.65509   0.65630   0.65759   0.66852
 Alpha virt. eigenvalues --    0.67822   0.68399   0.69077   0.69553   0.69827
 Alpha virt. eigenvalues --    0.70802   0.70969   0.71745   0.72191   0.73122
 Alpha virt. eigenvalues --    0.73575   0.74236   0.74451   0.75597   0.75863
 Alpha virt. eigenvalues --    0.77590   0.78486   0.79187   0.80583   0.81051
 Alpha virt. eigenvalues --    0.82630   0.85654   0.86078   0.86387   0.88530
 Alpha virt. eigenvalues --    0.90614   0.93216   0.93513   0.95781   0.97230
 Alpha virt. eigenvalues --    0.98140   0.99884   1.03473   1.04121   1.05306
 Alpha virt. eigenvalues --    1.06125   1.06544   1.07714   1.09198   1.12577
 Alpha virt. eigenvalues --    1.14448   1.16447   1.17540   1.18649   1.20973
 Alpha virt. eigenvalues --    1.21663   1.22672   1.22966   1.26924   1.31811
 Alpha virt. eigenvalues --    1.34844   1.36181   1.37960   1.38880   1.39658
 Alpha virt. eigenvalues --    1.40348   1.42320   1.42469   1.43602   1.44748
 Alpha virt. eigenvalues --    1.46291   1.47255   1.47432   1.48837   1.49132
 Alpha virt. eigenvalues --    1.51731   1.53315   1.53891   1.54359   1.55576
 Alpha virt. eigenvalues --    1.56072   1.56454   1.57191   1.58074   1.60986
 Alpha virt. eigenvalues --    1.61598   1.62101   1.62608   1.63136   1.64232
 Alpha virt. eigenvalues --    1.64345   1.64892   1.65489   1.66807   1.67310
 Alpha virt. eigenvalues --    1.68446   1.68959   1.69109   1.69790   1.72277
 Alpha virt. eigenvalues --    1.73440   1.74047   1.75486   1.76049   1.76490
 Alpha virt. eigenvalues --    1.77367   1.78872   1.79878   1.82145   1.82178
 Alpha virt. eigenvalues --    1.85065   1.86501   1.86965   1.89334   1.90629
 Alpha virt. eigenvalues --    1.92752   1.93713   1.94071   1.95033   1.97579
 Alpha virt. eigenvalues --    1.99588   2.02470   2.04710   2.05224   2.06294
 Alpha virt. eigenvalues --    2.07143   2.08141   2.11208   2.11434   2.12942
 Alpha virt. eigenvalues --    2.14922   2.17536   2.19698   2.22579   2.23494
 Alpha virt. eigenvalues --    2.24264   2.26195   2.26889   2.29065   2.30250
 Alpha virt. eigenvalues --    2.30454   2.32744   2.33433   2.37074   2.37765
 Alpha virt. eigenvalues --    2.40981   2.43471   2.46016   2.47228   2.47635
 Alpha virt. eigenvalues --    2.48135   2.48367   2.50109   2.50512   2.51514
 Alpha virt. eigenvalues --    2.52078   2.52602   2.53005   2.53348   2.53718
 Alpha virt. eigenvalues --    2.54359   2.54949   2.56939   2.57080   2.58304
 Alpha virt. eigenvalues --    2.58592   2.59410   2.61428   2.61807   2.63138
 Alpha virt. eigenvalues --    2.65563   2.66501   2.69543   2.70234   2.70906
 Alpha virt. eigenvalues --    2.71455   2.73307   2.74266   2.75281   2.76540
 Alpha virt. eigenvalues --    2.77800   2.78026   2.79612   2.81498   2.84355
 Alpha virt. eigenvalues --    2.86507   2.88265   2.89474   2.90389   2.93252
 Alpha virt. eigenvalues --    2.93727   2.95398   2.96415   2.97438   2.98289
 Alpha virt. eigenvalues --    3.03532   3.03713   3.04563   3.06825   3.07594
 Alpha virt. eigenvalues --    3.12187   3.20090   3.22112   3.29287   3.36256
 Alpha virt. eigenvalues --    3.37323   3.45340   3.49286   3.53479   3.65298
 Alpha virt. eigenvalues --    3.75028   3.77481   3.78743   3.79109   3.79794
 Alpha virt. eigenvalues --    3.80696   3.81982   3.82907   3.83992   3.85755
 Alpha virt. eigenvalues --    3.86099   3.87586   3.88005   3.91147   3.95207
 Alpha virt. eigenvalues --    3.96455   3.97212   4.02532   4.15017   4.17716
 Alpha virt. eigenvalues --    4.32307   4.33421   4.44309   4.70365   4.96618
 Alpha virt. eigenvalues --    4.98450   5.28476  23.60255  23.73138  23.75124
 Alpha virt. eigenvalues --   23.78544  23.87910  23.88141  23.88371  23.89546
 Alpha virt. eigenvalues --   23.91823  23.96206  24.09405  35.30977  35.44275
          Condensed to atoms (all electrons):
               1          2          3          4          5          6
     1  C    6.662548   0.220728  -0.100743  -0.019800   0.112928   0.228029
     2  C    0.220728   6.743644   0.031563   0.036709  -0.099026  -1.252877
     3  N   -0.100743   0.031563   7.603774   0.400111  -0.643790  -0.626052
     4  C   -0.019800   0.036709   0.400111   6.741130   0.341857  -0.285171
     5  N    0.112928  -0.099026  -0.643790   0.341857   7.488402   0.396701
     6  C    0.228029  -1.252877  -0.626052  -0.285171   0.396701   8.428873
     7  C   -1.200757   0.222196   0.363872  -0.304205  -0.605646  -0.745319
     8  C   -0.065360   0.007599  -0.104286  -0.455757  -0.057094  -0.279791
     9  C   -0.000073  -0.029483  -0.114229   0.006481  -0.021047   0.017794
    10  C    0.018857  -0.002720  -0.060068  -0.006799  -0.007186  -0.066840
    11  C   -0.000801  -0.058258  -0.129746  -0.474787  -0.111135   0.104663
    12  C   -0.010371   0.012949   0.009548   0.021985  -0.062066  -0.007414
    13  C   -0.031510   0.009441  -0.003051   0.011847  -0.088825  -0.008905
    14  H   -0.005045  -0.122161   0.010482  -0.002553   0.001203   0.503004
    15  H   -0.018821   0.092476   0.001904   0.009222  -0.004229   0.261564
    16  H    0.000154  -0.027739  -0.000578   0.007724   0.000592   0.367276
    17  H   -0.098817  -0.016792  -0.000502  -0.003746   0.011524  -0.003740
    18  H    0.003292  -0.008874   0.000358   0.011110   0.005459   0.009934
    19  H    0.044089  -0.007351  -0.002071   0.010403   0.003172   0.001286
    20  H   -0.007780   0.028055  -0.100909   0.015995   0.018231   0.005847
    21  H   -0.000465   0.001354  -0.012381   0.013037  -0.006036  -0.019818
    22  H   -0.001541   0.006762   0.023346   0.007214  -0.000204   0.001822
    23  H    0.005065  -0.032149  -0.013038  -0.013911   0.004580   0.040569
    24  H   -0.000004  -0.007654  -0.013914   0.016089  -0.007749  -0.012453
    25  H   -0.002382   0.004035   0.021807   0.005600  -0.000488   0.006942
    26  H    0.004380  -0.006579  -0.012410  -0.011158   0.006482   0.012745
    27  H    0.028065  -0.003601   0.003485   0.005219  -0.094559   0.000046
    28  H   -0.004810  -0.001699  -0.006671   0.011669  -0.012763  -0.000442
    29  H    0.004220  -0.001652  -0.000369   0.003065   0.019166  -0.000275
    30  H   -0.008959   0.004411   0.005221  -0.006497  -0.011726   0.000656
    31  H   -0.002600  -0.001754  -0.005268   0.009639  -0.014689  -0.000200
    32  H    0.006016  -0.000837   0.000170   0.004707   0.024526  -0.000145
    33  H   -0.021025   0.004578   0.003348  -0.008062  -0.013618   0.000916
               7          8          9         10         11         12
     1  C   -1.200757  -0.065360  -0.000073   0.018857  -0.000801  -0.010371
     2  C    0.222196   0.007599  -0.029483  -0.002720  -0.058258   0.012949
     3  N    0.363872  -0.104286  -0.114229  -0.060068  -0.129746   0.009548
     4  C   -0.304205  -0.455757   0.006481  -0.006799  -0.474787   0.021985
     5  N   -0.605646  -0.057094  -0.021047  -0.007186  -0.111135  -0.062066
     6  C   -0.745319  -0.279791   0.017794  -0.066840   0.104663  -0.007414
     7  C    8.472707   0.096458  -0.014360   0.003091  -0.256350  -0.062406
     8  C    0.096458   6.888761  -0.030504  -0.059530   0.066638  -0.008244
     9  C   -0.014360  -0.030504   5.953670  -0.416334  -0.016834   0.003540
    10  C    0.003091  -0.059530  -0.416334   5.922570  -0.009059  -0.001033
    11  C   -0.256350   0.066638  -0.016834  -0.009059   7.029494  -0.075931
    12  C   -0.062406  -0.008244   0.003540  -0.001033  -0.075931   5.823062
    13  C   -0.022088  -0.016768   0.000951   0.004612  -0.090220  -0.315609
    14  H   -0.014653  -0.002995   0.001865   0.001157  -0.000210  -0.000204
    15  H    0.011263  -0.000939   0.010438  -0.005742  -0.001113   0.000148
    16  H    0.002880   0.023714  -0.021440   0.002752   0.000476  -0.000057
    17  H    0.478064   0.000184  -0.000114  -0.000327  -0.000739   0.001759
    18  H    0.327019   0.000479   0.000114  -0.000266   0.021356  -0.007318
    19  H    0.308096  -0.000643  -0.000110   0.000165  -0.005863  -0.005046
    20  H   -0.000759   0.519046  -0.054695  -0.073165   0.000721  -0.000129
    21  H    0.000244   0.010238   0.387521   0.008020   0.000311  -0.000034
    22  H   -0.000131  -0.110784   0.449107   0.003240   0.000030  -0.000011
    23  H   -0.000054   0.010507   0.382601  -0.008742   0.000197   0.000011
    24  H   -0.000013   0.013326   0.004140   0.391569  -0.000399   0.000209
    25  H   -0.000342  -0.107804  -0.000299   0.451184  -0.000028   0.000087
    26  H   -0.000107   0.015026  -0.000769   0.365317   0.000516  -0.000326
    27  H   -0.000152  -0.001548  -0.000144  -0.000200   0.534361  -0.069680
    28  H   -0.011141  -0.000167  -0.000003   0.000127   0.006495   0.397031
    29  H    0.008805  -0.000004  -0.000002   0.000096  -0.102655   0.445953
    30  H    0.004142   0.000456   0.000002  -0.000421   0.020789   0.363374
    31  H   -0.014012   0.000604  -0.000002  -0.000020   0.019636   0.006837
    32  H    0.005774   0.000116   0.000053  -0.000010  -0.115078   0.005876
    33  H    0.018035   0.000009  -0.000292  -0.000031   0.009246  -0.010516
              13         14         15         16         17         18
     1  C   -0.031510  -0.005045  -0.018821   0.000154  -0.098817   0.003292
     2  C    0.009441  -0.122161   0.092476  -0.027739  -0.016792  -0.008874
     3  N   -0.003051   0.010482   0.001904  -0.000578  -0.000502   0.000358
     4  C    0.011847  -0.002553   0.009222   0.007724  -0.003746   0.011110
     5  N   -0.088825   0.001203  -0.004229   0.000592   0.011524   0.005459
     6  C   -0.008905   0.503004   0.261564   0.367276  -0.003740   0.009934
     7  C   -0.022088  -0.014653   0.011263   0.002880   0.478064   0.327019
     8  C   -0.016768  -0.002995  -0.000939   0.023714   0.000184   0.000479
     9  C    0.000951   0.001865   0.010438  -0.021440  -0.000114   0.000114
    10  C    0.004612   0.001157  -0.005742   0.002752  -0.000327  -0.000266
    11  C   -0.090220  -0.000210  -0.001113   0.000476  -0.000739   0.021356
    12  C   -0.315609  -0.000204   0.000148  -0.000057   0.001759  -0.007318
    13  C    5.862797   0.000113  -0.000164   0.000052   0.003023  -0.016258
    14  H    0.000113   0.496727  -0.021772  -0.023326   0.009200  -0.000158
    15  H   -0.000164  -0.021772   0.508011  -0.035609  -0.000357  -0.000166
    16  H    0.000052  -0.023326  -0.035609   0.518777  -0.000063   0.000229
    17  H    0.003023   0.009200  -0.000357  -0.000063   0.492379  -0.021099
    18  H   -0.016258  -0.000158  -0.000166   0.000229  -0.021099   0.518443
    19  H    0.000585  -0.000300   0.000382  -0.000135  -0.021146  -0.036573
    20  H   -0.000319   0.000039  -0.000015  -0.000123   0.000002  -0.000002
    21  H    0.000091  -0.000056  -0.000053   0.000243   0.000001   0.000000
    22  H    0.000063  -0.000019   0.000119  -0.000013   0.000000   0.000000
    23  H   -0.000222   0.000473   0.000732  -0.001280   0.000000   0.000000
    24  H   -0.000042  -0.000025   0.000086  -0.000455   0.000001  -0.000003
    25  H    0.000001  -0.000015   0.000032  -0.000091   0.000000   0.000000
    26  H   -0.000006   0.000166  -0.000158   0.003814   0.000000  -0.000001
    27  H   -0.056277   0.000002  -0.000001  -0.000001   0.000061  -0.000143
    28  H    0.006516   0.000002   0.000000  -0.000003  -0.000055  -0.000293
    29  H    0.000710   0.000000   0.000000   0.000000  -0.000032   0.000090
    30  H   -0.008141   0.000003   0.000001  -0.000002   0.000805   0.008893
    31  H    0.388369   0.000000  -0.000002   0.000000  -0.000084   0.000185
    32  H    0.448337   0.000000   0.000000   0.000000  -0.000042   0.000000
    33  H    0.380978   0.000004  -0.000004   0.000001   0.001341  -0.002416
              19         20         21         22         23         24
     1  C    0.044089  -0.007780  -0.000465  -0.001541   0.005065  -0.000004
     2  C   -0.007351   0.028055   0.001354   0.006762  -0.032149  -0.007654
     3  N   -0.002071  -0.100909  -0.012381   0.023346  -0.013038  -0.013914
     4  C    0.010403   0.015995   0.013037   0.007214  -0.013911   0.016089
     5  N    0.003172   0.018231  -0.006036  -0.000204   0.004580  -0.007749
     6  C    0.001286   0.005847  -0.019818   0.001822   0.040569  -0.012453
     7  C    0.308096  -0.000759   0.000244  -0.000131  -0.000054  -0.000013
     8  C   -0.000643   0.519046   0.010238  -0.110784   0.010507   0.013326
     9  C   -0.000110  -0.054695   0.387521   0.449107   0.382601   0.004140
    10  C    0.000165  -0.073165   0.008020   0.003240  -0.008742   0.391569
    11  C   -0.005863   0.000721   0.000311   0.000030   0.000197  -0.000399
    12  C   -0.005046  -0.000129  -0.000034  -0.000011   0.000011   0.000209
    13  C    0.000585  -0.000319   0.000091   0.000063  -0.000222  -0.000042
    14  H   -0.000300   0.000039  -0.000056  -0.000019   0.000473  -0.000025
    15  H    0.000382  -0.000015  -0.000053   0.000119   0.000732   0.000086
    16  H   -0.000135  -0.000123   0.000243  -0.000013  -0.001280  -0.000455
    17  H   -0.021146   0.000002   0.000001   0.000000   0.000000   0.000001
    18  H   -0.036573  -0.000002   0.000000   0.000000   0.000000  -0.000003
    19  H    0.515028  -0.000001  -0.000002   0.000000   0.000000   0.000000
    20  H   -0.000001   0.486352  -0.004063  -0.006612   0.005057  -0.003862
    21  H   -0.000002  -0.004063   0.504869  -0.020388  -0.029483  -0.000322
    22  H    0.000000  -0.006612  -0.020388   0.499636  -0.026120   0.000161
    23  H    0.000000   0.005057  -0.029483  -0.026120   0.505532  -0.000177
    24  H    0.000000  -0.003862  -0.000322   0.000161  -0.000177   0.506733
    25  H    0.000000  -0.005166   0.000146   0.002268  -0.000348  -0.021279
    26  H    0.000000   0.005136  -0.000316  -0.000618   0.002183  -0.028493
    27  H   -0.000044   0.000071   0.000000   0.000000   0.000001   0.000002
    28  H    0.000109   0.000004   0.000000   0.000000   0.000000   0.000011
    29  H    0.000038   0.000000   0.000000   0.000000   0.000000   0.000000
    30  H   -0.000671   0.000002   0.000000   0.000000   0.000000  -0.000002
    31  H   -0.000078   0.000003   0.000001   0.000000   0.000000   0.000000
    32  H    0.000422   0.000000   0.000000   0.000000   0.000000   0.000000
    33  H    0.006531   0.000002  -0.000001   0.000000   0.000001   0.000000
              25         26         27         28         29         30
     1  C   -0.002382   0.004380   0.028065  -0.004810   0.004220  -0.008959
     2  C    0.004035  -0.006579  -0.003601  -0.001699  -0.001652   0.004411
     3  N    0.021807  -0.012410   0.003485  -0.006671  -0.000369   0.005221
     4  C    0.005600  -0.011158   0.005219   0.011669   0.003065  -0.006497
     5  N   -0.000488   0.006482  -0.094559  -0.012763   0.019166  -0.011726
     6  C    0.006942   0.012745   0.000046  -0.000442  -0.000275   0.000656
     7  C   -0.000342  -0.000107  -0.000152  -0.011141   0.008805   0.004142
     8  C   -0.107804   0.015026  -0.001548  -0.000167  -0.000004   0.000456
     9  C   -0.000299  -0.000769  -0.000144  -0.000003  -0.000002   0.000002
    10  C    0.451184   0.365317  -0.000200   0.000127   0.000096  -0.000421
    11  C   -0.000028   0.000516   0.534361   0.006495  -0.102655   0.020789
    12  C    0.000087  -0.000326  -0.069680   0.397031   0.445953   0.363374
    13  C    0.000001  -0.000006  -0.056277   0.006516   0.000710  -0.008141
    14  H   -0.000015   0.000166   0.000002   0.000002   0.000000   0.000003
    15  H    0.000032  -0.000158  -0.000001   0.000000   0.000000   0.000001
    16  H   -0.000091   0.003814  -0.000001  -0.000003   0.000000  -0.000002
    17  H    0.000000   0.000000   0.000061  -0.000055  -0.000032   0.000805
    18  H    0.000000  -0.000001  -0.000143  -0.000293   0.000090   0.008893
    19  H    0.000000   0.000000  -0.000044   0.000109   0.000038  -0.000671
    20  H   -0.005166   0.005136   0.000071   0.000004   0.000000   0.000002
    21  H    0.000146  -0.000316   0.000000   0.000000   0.000000   0.000000
    22  H    0.002268  -0.000618   0.000000   0.000000   0.000000   0.000000
    23  H   -0.000348   0.002183   0.000001   0.000000   0.000000   0.000000
    24  H   -0.021279  -0.028493   0.000002   0.000011   0.000000  -0.000002
    25  H    0.501852  -0.025971   0.000000   0.000000   0.000000   0.000000
    26  H   -0.025971   0.511135   0.000001   0.000000   0.000000   0.000001
    27  H    0.000000   0.000001   0.490649  -0.004030  -0.004389   0.005776
    28  H    0.000000   0.000000  -0.004030   0.503966  -0.020919  -0.028890
    29  H    0.000000   0.000000  -0.004389  -0.020919   0.500083  -0.024452
    30  H    0.000000   0.000001   0.005776  -0.028890  -0.024452   0.521044
    31  H    0.000000   0.000000  -0.004563  -0.000317   0.000203  -0.000283
    32  H    0.000000   0.000000  -0.004760   0.000224   0.002391  -0.000764
    33  H    0.000000   0.000000   0.005818  -0.000197  -0.000377   0.002157
              31         32         33
     1  C   -0.002600   0.006016  -0.021025
     2  C   -0.001754  -0.000837   0.004578
     3  N   -0.005268   0.000170   0.003348
     4  C    0.009639   0.004707  -0.008062
     5  N   -0.014689   0.024526  -0.013618
     6  C   -0.000200  -0.000145   0.000916
     7  C   -0.014012   0.005774   0.018035
     8  C    0.000604   0.000116   0.000009
     9  C   -0.000002   0.000053  -0.000292
    10  C   -0.000020  -0.000010  -0.000031
    11  C    0.019636  -0.115078   0.009246
    12  C    0.006837   0.005876  -0.010516
    13  C    0.388369   0.448337   0.380978
    14  H    0.000000   0.000000   0.000004
    15  H   -0.000002   0.000000  -0.000004
    16  H    0.000000   0.000000   0.000001
    17  H   -0.000084  -0.000042   0.001341
    18  H    0.000185   0.000000  -0.002416
    19  H   -0.000078   0.000422   0.006531
    20  H    0.000003   0.000000   0.000002
    21  H    0.000001   0.000000  -0.000001
    22  H    0.000000   0.000000   0.000000
    23  H    0.000000   0.000000   0.000001
    24  H    0.000000   0.000000   0.000000
    25  H    0.000000   0.000000   0.000000
    26  H    0.000000   0.000000   0.000000
    27  H   -0.004563  -0.004760   0.005818
[...]
 000096,-0.00000362,0.00000135,-0.00002984,-0.00000716,-0.00000732,0.00
 000657,0.00000230,-0.00000901,-0.00000240,-0.00000177,-0.00000093,0.00
 035683,0.00015842,0.00073403,0.12404089,-0.00002537,-0.00018943,0.0001
 1446,0.00000352,0.00002086,-0.00000882,0.00004203,-0.00004029,-0.00001
 419,0.00034520,0.00017655,0.00015778,0.00025152,0.00001695,0.00015717,
 -0.00000439,-0.00000941,-0.00000396,0.00003107,-0.00024174,-0.00012790
 ,-0.00002835,-0.00001255,-0.00001595,0.,-0.00000422,-0.00000257,0.0000
 0928,0.00000216,0.00000745,0.00465916,0.00236583,-0.00667115,-0.061098
 54,-0.09987327,0.08947870,-0.00073018,0.00034290,-0.00125744,-0.000003
 31,0.00000384,0.00000256,0.00000661,-0.00000038,0.00000206,0.00000724,
 0.00000196,-0.00000002,0.00010383,-0.00000095,0.00008241,-0.00004920,0
 .00026529,0.00008056,0.00000917,0.00000453,0.00002713,-0.00000457,0.00
 000180,-0.00000099,0.,-0.00000022,-0.00000009,0.00000114,0.00000093,0.
 00000043,-0.00000006,-0.00000117,0.00000091,-0.00000439,0.00000416,-0.
 00000367,0.00000215,0.00000109,-0.00000439,0.00000005,-0.00000163,0.00
 000069,0.00060332,0.00057040,0.00024327,0.06694936,0.10325857,-0.00023
 451,0.00032041,-0.00001782,-0.00001376,-0.00001537,-0.00007941,-0.0001
 0647,0.00001026,-0.00005867,-0.00049227,-0.00027671,0.00030382,0.00181
 165,0.00008875,0.00218842,-0.00000955,-0.00000123,-0.00001161,-0.00000
 088,0.00002103,-0.00000663,-0.00001163,0.00000045,-0.00000762,0.000000
 08,-0.00000326,-0.00000291,0.00000468,0.00000644,-0.00000297,0.0160853
 2,0.01304783,-0.02239276,0.10275702,0.08827698,-0.19792558,-0.00428523
 ,-0.00230220,-0.00423452,0.00000412,-0.00000659,-0.00000124,0.00000056
 ,-0.00000208,0.00000172,0.00000077,-0.00000397,-0.00000190,-0.00003603
 ,-0.00000097,0.00001219,-0.00001613,-0.00003088,-0.00006227,0.00001851
 ,-0.00005764,0.00003883,-0.00000176,-0.00000227,-0.00000044,-0.0000008
 8,-0.00000059,0.00000042,0.00000018,0.00000025,-0.00000027,0.00000020,
 -0.00000098,0.00000077,0.00001015,-0.00000075,0.00000915,0.00000308,-0
 .00000019,-0.00000032,-0.00000097,-0.00000112,0.00000025,0.00037640,-0
 .00013424,0.00108010,-0.11196524,-0.09581222,0.21717635,0.00068797,-0.
 00119665,-0.00008646,-0.00051380,-0.00024650,0.00009435,-0.00092330,0.
 00037768,0.00013994,0.00105656,0.00112492,-0.00058345,-0.00192104,-0.0
 0139321,-0.00334676,-0.00000443,-0.00004479,0.00002361,0.00002489,-0.0
 0000761,0.00009496,0.00019320,0.00022888,0.00006500,-0.00004240,-0.000
 03904,0.00003402,-0.00007466,-0.00005663,-0.00003144,-0.01221388,0.004
 94975,0.00284677,-0.28749827,0.08917191,-0.00272209,0.00021058,0.00015
 444,0.00094474,-0.00000351,0.00002686,0.00000366,-0.00004857,0.0000305
 8,-0.00001748,-0.00005126,0.00003389,0.00000884,-0.00000916,0.00004261
 ,-0.00001314,-0.00000721,-0.00001968,-0.00004787,0.00002906,0.00002739
 ,-0.00001154,-0.00000140,-0.00001182,-0.00000176,0.00000777,0.00000327
 ,-0.00000001,-0.00002919,-0.00000479,-0.00001864,0.00000497,0.00001285
 ,-0.00000377,0.00000769,-0.00000014,-0.00000327,-0.00003068,-0.0000079
 8,0.00003477,0.00000540,0.00001264,-0.00000162,0.00033611,-0.00033782,
 0.00032073,-0.01344580,0.00558632,-0.00108043,0.31137573,-0.00024340,-
 0.00053948,-0.00029287,-0.00021439,-0.00003156,0.00005318,-0.00016622,
 0.00023214,0.00003500,0.00025369,0.00022568,-0.00008134,-0.00187003,0.
 00075405,-0.00205602,-0.00000662,-0.00001489,0.00004454,-0.00004433,-0
 .00037761,-0.00017545,-0.00000976,0.00002316,0.00000978,-0.00000086,-0
 .00000118,0.00000194,-0.00000315,-0.00000754,0.00000190,-0.00749203,0.
 00106262,0.00011105,0.09012459,-0.07963815,0.00097351,0.00013572,0.000
 12531,0.00017062,-0.00001088,0.00001335,0.00000201,0.00001095,-0.00000
 137,0.00000089,-0.00000690,0.00000997,-0.00000105,0.00016892,-0.000012
 87,0.00016023,0.00018886,0.00037193,0.00015880,0.00005354,0.00001607,0
 .00006074,0.00000401,0.00000156,-0.00000056,-0.00000012,0.00000007,-0.
 00000019,-0.00000097,0.00000056,-0.00000071,-0.00000032,0.00000010,-0.
 00000027,-0.00000017,0.00000028,-0.00000116,-0.00000252,0.00000008,0.0
 0000238,0.00000037,0.00000103,-0.00000044,-0.00014068,0.00048014,0.000
 69879,-0.01393240,0.00481120,-0.00124787,-0.09715088,0.08209987,0.0004
 0400,-0.00099645,-0.00019208,-0.00055061,-0.00035372,0.00009624,-0.001
 14122,0.00042331,0.00026377,0.00069058,0.00095331,-0.00059642,-0.00439
 147,-0.00187462,-0.00489559,-0.00000321,-0.00004503,0.00005489,-0.0000
 6988,-0.00005749,-0.00002862,0.00017004,0.00023810,0.00011819,-0.00003
 145,-0.00003354,0.00003113,-0.00008207,-0.00006504,-0.00003400,-0.0258
 2077,0.01149257,0.00094525,-0.00002867,0.00017241,-0.04749437,0.000008
 84,0.00034653,0.00100878,-0.00000293,0.00002679,0.00000093,-0.00003134
 ,0.00001978,-0.00001332,-0.00004764,0.00003203,0.00000658,0.00000813,0
 .00004238,-0.00000312,0.00006120,0.00002551,0.00000218,0.00005184,0.00
 003070,0.00000449,-0.00000185,-0.00001367,-0.00000528,0.00000667,0.000
 00374,-0.00000037,-0.00002586,-0.00000367,-0.00001586,0.00000364,0.000
 01057,-0.00000308,0.00000953,-0.00000130,-0.00000064,-0.00003012,-0.00
 000809,0.00003894,0.00000365,0.00001224,-0.00000349,0.00041348,-0.0000
 7581,0.00131948,0.02193046,-0.00991396,0.00079699,0.00349019,0.0008362
 0,0.05002070,-0.00042602,-0.00012127,-0.00000136,-0.00009424,0.0000462
 0,0.00000543,0.00015396,0.00020139,0.00000176,-0.00026552,-0.00007019,
 0.00010136,0.00122100,-0.00029301,0.00083031,0.00000851,0.00001076,-0.
 00001444,-0.00057104,0.00006211,-0.00056677,-0.00007369,-0.00003224,-0
 .00001561,0.00001208,0.00000826,-0.00000896,0.00002068,0.00001266,0.00
 000540,-0.00150783,-0.01573921,-0.00252626,-0.04648620,-0.00717847,-0.
 00039080,-0.00000074,0.00061714,0.00101837,-0.00001161,0.00001299,0.00
 000036,0.00002035,0.00000200,0.00001001,0.00002080,-0.00001235,-0.0000
 0309,0.00012376,-0.00001488,0.00013291,-0.00040818,0.00147129,-0.00053
 764,0.00014383,-0.00000103,0.00013113,0.00001184,0.00000854,-0.0000017
 1,-0.00000101,-0.00000052,-0.00000021,0.00000671,0.00000175,0.00000474
 ,-0.00000250,-0.00000322,0.00000057,-0.00000274,-0.00000039,0.00000144
 ,0.00000856,0.00000220,-0.00000799,-0.00000073,-0.00000193,0.00000113,
 -0.00038066,-0.00043147,-0.00280478,-0.00075284,-0.01647669,-0.0036341
 5,0.00212029,0.03044956,0.00461447,0.04690746,-0.00064670,-0.00047660,
 -0.00017234,-0.00011419,0.00005770,-0.00001364,-0.00023566,0.00009325,
 0.00008973,-0.00002158,0.00022560,-0.00015091,-0.00028722,0.00048059,-
 0.00035045,-0.00000332,-0.00002681,-0.00006903,0.00087529,-0.00099146,
 0.00060173,0.00007340,0.00007993,0.00001804,-0.00001398,-0.00001176,0.
 00001156,-0.00002157,-0.00001391,-0.00001037,0.00050791,-0.00699352,-0
 .00045703,-0.00784767,-0.31392855,-0.04169308,-0.00009888,0.00087235,0
 .00038499,-0.00000968,0.00001715,0.00000809,-0.00003214,0.00001848,-0.
 00000628,-0.00001230,0.00001648,0.00000710,0.00024089,-0.00006344,0.00
 023341,0.00143196,-0.00082626,0.00102767,-0.00003570,-0.00001367,0.000
 02225,0.00000561,-0.00000399,-0.00000045,0.00000283,0.00000085,0.00000
 063,-0.00001014,-0.00000202,-0.00000617,0.00000146,0.00000478,-0.00000
 176,0.00000133,-0.00000118,-0.00000081,-0.00000945,-0.00000236,0.00001
 094,0.00000019,0.00000445,0.00000015,-0.00081178,0.00146521,-0.0011213
 8,0.00067944,-0.01216636,-0.00247297,-0.00098830,-0.00968626,-0.001099
 05,0.00710632,0.34139855,-0.00045125,-0.00049282,0.00019459,-0.0002216
 3,0.00015005,-0.00002465,0.00001484,0.00030830,0.00005048,-0.00031470,
 0.00002892,0.00015593,0.00107988,0.00081235,0.00112559,-0.00000509,-0.
 00000370,-0.00002830,-0.00028103,-0.00007603,-0.00056123,-0.00002169,0
 .00001686,-0.00002644,-0.00000097,0.00000050,0.00000176,0.00000946,0.0
 0000711,0.00000063,0.00090538,-0.03190832,-0.00547176,-0.00092949,-0.0
 3999336,-0.05344449,-0.00009006,-0.00093595,0.00211557,-0.00001430,0.0
 0002349,0.00000337,0.00000311,0.00001395,0.00000479,0.00000840,-0.0000
 0228,0.,0.00021443,0.00001284,0.00016715,-0.00057910,0.00114575,0.0001
 0233,0.00002023,0.00004134,0.00004179,0.00001513,0.00000897,-0.0000007
 3,0.00000017,-0.00000028,-0.00000045,-0.00000029,0.00000075,-0.0000004
 2,-0.00000156,0.00000022,-0.00000103,0.00000080,0.00000098,0.00000014,
 0.00000113,-0.00000002,-0.00000325,-0.00000100,-0.00000014,0.00000158,
 -0.00263456,-0.00064819,-0.00491673,-0.00079784,0.02400120,0.00419828,
 0.00015395,0.00042430,-0.00107783,0.00369890,0.04598345,0.05742787,-0.
 00011640,0.00023680,0.00001362,0.00007507,0.00003931,-0.00000644,0.000
 28348,-0.00006805,0.00003369,0.00005685,-0.00017466,-0.00016412,0.0018
 1145,0.00056825,-0.00013667,-0.00000128,0.00000734,0.00000497,0.000096
 71,-0.00001336,0.00004496,-0.00005392,-0.00006451,0.00000812,0.0000175
 4,0.00001463,-0.00001017,0.00001679,0.00001101,0.00000838,0.00631506,0
 .00427850,0.01668732,-0.00148232,-0.00136513,0.00237627,-0.10950668,-0
 .02845845,-0.11383218,-0.00000030,-0.00000778,-0.00000061,0.00001430,-
 0.00001056,0.00000290,0.00001053,-0.00000448,-0.00000312,0.00001224,-0
 .00000256,-0.00002550,-0.00003562,-0.00001784,0.00003498,0.00004100,-0
 .00000904,-0.00009367,-0.00000075,0.00000389,-0.00000077,-0.00000245,-
 0.00000074,-0.00000022,0.00000991,0.00000050,0.00000622,-0.00000065,-0
 .00000325,0.00000144,-0.00000313,-0.00000100,0.00000122,0.00000753,0.0
 0000269,-0.00000794,-0.00000013,-0.00000312,-0.00000006,0.00039760,0.0
 0030264,-0.00075555,0.00056295,-0.00001831,0.00086909,0.00024049,-0.00
 011395,0.00009291,-0.00011051,-0.00003488,-0.00009103,0.11577883,-0.00
 003126,-0.00008173,-0.00010928,0.00001797,0.00004963,0.00002829,0.0000
 1036,-0.00004710,0.00002648,0.00013148,0.00003440,-0.00018325,0.000435
 74,0.00038146,-0.00062390,-0.00000407,-0.00001200,0.00000286,-0.000026
 37,0.00003115,-0.00018722,-0.00000253,0.00000079,0.00001419,0.00000366
 ,0.00000315,-0.00000237,-0.00000337,-0.00000458,0.,0.00762935,0.001824
 91,0.01147450,-0.00158996,-0.00048415,0.00167902,-0.02914045,-0.060955
 65,-0.05086200,0.00000153,0.00000357,0.00000049,0.00000151,0.00000041,
 0.00000007,-0.00000103,0.00000312,0.00000052,0.00008118,0.00000359,0.0
 0007531,0.00001911,0.00006741,0.00014800,-0.00014141,-0.00006752,0.000
 08434,-0.00000127,-0.00000065,0.00000068,-0.00000064,0.00000181,0.0000
 0083,0.00000084,-0.00000042,0.00000113,-0.00000031,-0.00000010,-0.0000
 0015,0.00000029,-0.00000012,-0.00000029,-0.00000056,-0.00000009,0.0000
 0144,0.00000017,-0.00000003,-0.00000033,0.00065584,0.00045165,-0.00038
 733,0.00005349,0.00047830,0.00073904,-0.00022145,-0.00006120,-0.000231
 80,0.00003354,0.00020461,0.00036293,0.03216100,0.06090537,0.00033586,-
 0.00024484,-0.00009562,0.00003325,-0.00006200,-0.00003268,0.00000858,-
 0.00000148,-0.00012006,0.00057617,0.00029536,0.00027704,-0.00156828,-0
 .00053961,0.00216424,0.00000780,0.00000421,-0.00002070,0.00002051,-0.0
 0012184,-0.00009212,0.00000862,-0.00000055,-0.00001657,-0.00000560,-0.
 00000505,-0.00000140,-0.00000078,-0.00000006,-0.00000058,-0.01356220,-
 0.00630668,-0.02225048,0.00413891,0.00318912,-0.00284131,-0.11116815,-
 0.04992335,-0.24534649,-0.00000322,0.00000458,0.00000160,-0.00000185,0
 .00000362,0.00000226,0.00000482,-0.00000130,0.00000288,0.00005935,0.00
 000776,0.00002629,0.00000218,0.00009237,0.00007822,-0.00003680,-0.0000
 7047,-0.00002439,-0.00000377,-0.00000039,0.00000107,0.00000026,0.00000
 091,0.00000363,-0.00000310,0.00000024,-0.00000003,0.00000016,0.0000004
 1,0.00000028,0.00000046,0.00000006,0.00000034,-0.00000033,-0.00000031,
 0.00000002,-0.00000002,0.00000082,-0.00000045,-0.00020120,0.00012362,0
 .00087080,-0.00065492,-0.00037844,-0.00156899,-0.00009065,0.00005795,0
 .00037475,0.00007245,-0.00009121,0.00024834,0.12070008,0.05294005,0.26
 757203,0.00071750,-0.00109765,-0.00004661,-0.00045088,-0.00024831,0.00
 003452,-0.00103175,0.00026508,-0.00017374,0.00086698,0.00117582,0.0005
 6999,-0.00204189,-0.00228955,0.00341742,-0.00000017,-0.00004733,-0.000
 04176,0.00001367,-0.00005659,0.00000141,0.00017728,0.00024435,-0.00010
 282,-0.00007220,-0.00006792,0.00004149,-0.00004544,-0.00003523,-0.0000
 2731,-0.01436436,0.00713423,-0.00203376,0.00015998,0.00028685,-0.00084
 229,-0.27481371,0.10198914,0.01001771,0.00000241,0.00002856,0.00000248
 ,-0.00005493,0.00004259,-0.00001166,-0.00004160,0.00001559,0.00000797,
 0.00001208,0.00003406,-0.00002029,0.00002038,-0.00000224,-0.00002196,0
 .00004685,-0.00003076,-0.00000634,-0.00000117,-0.00001275,0.00000365,0
 .00000907,0.00000239,0.00000238,-0.00003844,-0.00000207,-0.00002652,0.
 00000511,0.00001372,-0.00000316,0.00000713,0.00000097,-0.00000063,-0.0
 0002566,-0.00000810,0.00002626,0.00000316,0.00001153,-0.00000025,0.000
 48148,-0.00025246,-0.00054446,0.00025353,-0.00026211,0.00004811,0.0005
 3595,-0.00007492,0.00026055,0.00000227,-0.00002039,0.00000751,-0.01238
 345,0.00569234,0.00154142,0.29790812,-0.00018887,-0.00073504,0.0003009
 6,-0.00028166,-0.00012006,-0.00004691,-0.00045887,0.00029899,-0.000105
 73,0.00033616,0.00043608,0.00019448,-0.00295006,-0.00039920,0.00300627
 ,0.00000160,-0.00001455,-0.00004688,0.00037109,-0.00073528,0.00008066,
 0.00000714,0.00007178,-0.00005096,-0.00002215,-0.00002502,0.00000790,-
 0.00000402,-0.00000764,-0.00000578,-0.01261848,0.00396919,0.00029645,0
 .00020197,0.00014448,-0.00028219,0.10387540,-0.09207408,-0.00457933,-0
 .00002041,0.00002079,0.00000610,-0.00001036,0.00001185,0.00000089,0.00
 000857,0.00000436,0.00000152,0.00027656,0.00006535,-0.00021754,0.00002
 875,0.00007283,0.00026568,-0.00004301,0.00028960,-0.00048487,0.0000024
 6,0.00000001,0.00000037,0.00000276,0.00000022,0.00000107,-0.00001144,0
 .00000123,-0.00000779,-0.00000032,0.00000291,-0.00000034,0.00000061,0.
 00000075,0.00000014,-0.00000437,-0.00000063,0.00000485,0.00000006,0.00
 000134,0.00000079,-0.00017345,0.00084026,-0.00076832,-0.00008977,-0.00
 004881,-0.00017142,-0.00007921,0.00015976,0.00003778,0.00007105,0.0000
 1884,0.00006369,-0.00740770,0.00226390,0.00094727,-0.11065327,0.096923
 45,-0.00037889,0.00071597,-0.00004324,0.00036808,0.00023471,-0.0000246
 4,0.00093311,-0.00014446,0.00018159,-0.00021876,-0.00088772,-0.0004344
 3,0.00348782,0.00275231,-0.00347060,-0.00000379,0.00003844,0.00004353,
 -0.00001626,0.00001789,-0.00010146,-0.00011139,-0.00020255,0.00010822,
 0.00006239,0.00005981,-0.00003460,0.00003034,0.00002250,0.00002103,0.0
 2259232,-0.01203569,-0.00077175,-0.00001381,-0.00047821,0.00071716,0.0
 0763316,-0.00363194,-0.04741676,-0.00000526,-0.00002216,-0.00000194,0.
 00004042,-0.00003144,0.00000950,0.00002493,-0.00000631,-0.00000401,0.0
 0003830,-0.00002979,0.00003567,0.00000182,-0.00001465,0.00005360,-0.00
 003500,-0.00008169,0.00001871,0.00000127,0.00000935,-0.00000366,-0.000
 00675,-0.00000104,0.00000016,0.00003092,0.00000134,0.00002380,-0.00000
 368,-0.00000983,0.00000145,-0.00000519,-0.00000121,0.00000002,0.000018
 43,0.00000555,-0.00001821,-0.00000272,-0.00000797,-0.00000022,-0.00043
 365,-0.00012882,0.00119178,-0.00015011,0.00016480,0.00033979,-0.000129
 98,0.00008752,-0.00063202,0.00000678,0.00003842,-0.00006873,-0.0246370
 8,0.01247313,0.00225966,-0.01187183,0.00224950,0.04932503,-0.00038769,
 -0.00047371,0.00003934,-0.00018208,0.00000871,-0.00006257,0.00006164,0
 .00041884,-0.00004673,-0.00016003,-0.00000500,-0.00004727,0.00122626,-
 0.00000030,-0.00054252,0.00001098,0.00004583,0.00000546,-0.00109539,0.
 00027207,0.00077229,-0.00008440,-0.00002423,0.00002277,0.00001961,0.00
 001064,-0.00001004,0.00001704,0.00000789,0.00000696,-0.00214056,-0.018
 24302,-0.00175434,0.00017196,0.00076907,-0.00105477,-0.04943336,-0.026
 83418,-0.00272758,-0.00004235,0.00001287,0.00000445,0.00002917,-0.0000
 2162,0.00000910,0.00003434,0.00000228,-0.00000176,0.00024350,0.0000648
 5,-0.00013861,-0.00014831,0.00006450,0.00032910,-0.00091929,0.00133786
 ,-0.00029851,0.00001801,0.00001246,-0.00000118,-0.00000175,-0.00000025
 ,-0.00000018,0.00000941,0.00000243,0.00000620,-0.00000443,-0.00000321,
 0.00000012,-0.00000216,-0.00000022,0.00000028,0.00000808,0.00000305,-0
 .00000742,-0.00000222,-0.00000392,0.00000150,-0.00073927,-0.00093226,0
 .00278649,-0.00013615,0.00009450,-0.00010001,-0.00001810,0.00009532,0.
 00003892,0.00031394,0.00032888,0.00030227,-0.00205074,-0.01576472,-0.0
 0021002,0.00414270,0.02983326,0.00275406,0.05124162,-0.00066607,-0.000
 47602,0.00020025,-0.00015911,0.00003476,0.00002409,-0.00029459,0.00017
 511,-0.00010606,-0.00005825,0.00020867,0.00013439,-0.00017215,0.000299
 91,0.00030178,0.00000575,-0.00004680,0.00003661,0.00184806,-0.00195670
 ,-0.00066569,0.00007545,0.00008485,-0.00001949,-0.00001869,-0.00001616
 ,0.00001189,-0.00001630,-0.00001155,-0.00001040,0.00007596,-0.01289160
 ,-0.00119232,0.00003954,0.00088312,-0.00071345,-0.02844065,-0.31759306
 ,-0.02255579,-0.00001193,0.00003600,0.00000780,-0.00001347,0.00001910,
 -0.00000564,-0.00001992,0.00002278,0.00000524,0.00048896,0.00001275,-0
 .00035749,0.00024387,-0.00008090,0.00023879,0.00108271,-0.00029291,-0.
 00081821,0.00000739,-0.00000415,0.00000136,0.00000272,0.00000092,0.000
 00019,-0.00001208,-0.00000097,-0.00000752,0.00000014,0.00000439,-0.000
 00197,0.00000324,-0.00000004,-0.00000116,-0.00000961,-0.00000310,0.000
 00936,0.00000088,0.00000456,0.00000061,-0.00150249,0.00092572,0.002023
 40,-0.00005956,0.00026309,0.00003407,0.00002252,-0.00001685,0.00006928
 ,0.00025910,0.00024933,0.00065315,0.00015280,-0.00499389,0.00007925,-0
 .00177555,-0.01143767,-0.00115576,0.02892134,0.34659731,0.00030046,0.0
 0038284,0.00008115,0.00008119,-0.00016844,-0.00002115,0.00002131,-0.00
 019821,0.00009548,0.00041775,0.00007277,-0.00001003,-0.00094996,-0.000
 80024,0.00073968,0.00000395,-0.00001815,-0.00003298,0.00069208,-0.0004
 7686,0.00027597,-0.00002027,-0.00003463,-0.00000670,0.00000219,-0.0000
 0038,-0.00000394,0.00000577,0.00000338,0.00000500,0.00097702,0.0291311
 9,0.00157381,-0.00014824,0.00075944,0.00223180,-0.00294006,-0.02455797
 ,-0.04969554,0.00002074,-0.00001413,-0.00000287,-0.00000081,0.00000424
 ,0.00000009,0.00000240,-0.00001365,-0.00000288,-0.00009841,-0.00004321
 ,-0.00015799,0.00023887,-0.00027888,-0.00049423,0.00013639,-0.00004733
 ,0.00006358,-0.00001335,-0.00000396,-0.00000139,-0.00000123,-0.0000006
 0,0.00000036,0.00000280,0.00000058,0.00000103,0.00000082,-0.00000176,0
 .00000154,-0.00000144,0.00000045,0.00000084,0.00000316,0.00000079,-0.0
 0000297,0.00000008,-0.00000170,-0.00000110,0.00281272,0.00174909,-0.00
 391164,0.00004733,-0.00030582,0.00022884,-0.00006516,-0.00003340,-0.00
 008720,-0.00012371,-0.00072120,-0.00021414,-0.00112106,-0.02746537,-0.
 00147154,-0.00020748,-0.00069829,-0.00130444,-0.00007583,0.02377941,0.
 05212357\\0.00000016,0.00000631,-0.00000836,-0.00000010,-0.00000278,0.
 00000061,0.00000481,-0.00000129,0.00000481,-0.00000095,0.00000391,-0.0
 0000165,0.00000133,-0.00000906,0.00000525,0.00000052,0.00000067,0.0000
 0113,-0.00000022,-0.00000178,0.00000265,-0.00000086,0.00000036,-0.0000
 0342,0.00000064,0.00000228,0.00000084,-0.00000072,-0.00000190,0.000000
 93,-0.00000940,-0.00000069,-0.00000031,0.00000441,0.00000078,0.0000022
 4,0.00000324,0.00000254,-0.00000357,-0.00000022,0.00000042,0.00000262,
 0.00000084,0.00000086,0.00000067,-0.00000013,-0.00000068,0.00000017,-0
 .00000039,0.00000032,0.00000228,-0.00000077,-0.00000064,0.00000025,-0.
 00000016,0.00000242,0.00000017,-0.00000031,-0.00000009,-0.00000139,-0.
 00000005,0.00000061,-0.00000057,0.00000016,-0.00000011,-0.00000037,-0.
 00000020,-0.00000017,-0.00000063,0.00000047,-0.00000058,-0.00000109,0.
 00000023,0.00000029,-0.00000088,0.00000051,-0.00000054,0.00000024,0.00
 000051,0.00000053,-0.00000175,0.00000008,-0.00000085,0.00000006,-0.000
 00088,-0.00000205,-0.00000068,0.00000010,-0.00000080,-0.00000108,-0.00
 000028,0.00000043,-0.00000034,-0.00000100,0.00000070,0.00000050,-0.000
 00134,0.00000059,0.00000066\\\@


 IF NO USE IS MADE OF THE LABOR OF PAST AGES,
 THE WORLD MUST REMAIN ALWAYS IN THE INFANCY OF KNOWLEDGE.

                          -- CICERO
 Job cpu time:       1 days  4 hours 54 minutes  5.1 seconds.
 File lengths (MBytes):  RWF=    571 Int=      0 D2E=      0 Chk=     22 Scr=      1
 Normal termination of Gaussian 09 at Sat Jun 19 14:09:56 2021.
