 Entering Gaussian System, Link 0=g09
 Input=NHC17.gjf
 Output=NHC17.log
 Initial command:
 /usr/local/gqt/g09/l1.exe "/usr/local/gqt/lixogaussian/Gau-10613.inp" -scrdir="/usr/local/gqt/lixogaussian/"
 Entering Link 1 = /usr/local/gqt/g09/l1.exe PID=     10615.
  
 Copyright (c) 1988,1990,1992,1993,1995,1998,2003,2009,2013,
            Gaussian, Inc.  All Rights Reserved.
  
 This is part of the Gaussian(R) 09 program.  It is based on
 the Gaussian(R) 03 system (copyright 2003, Gaussian, Inc.),
 the Gaussian(R) 98 system (copyright 1998, Gaussian, Inc.),
 the Gaussian(R) 94 system (copyright 1995, Gaussian, Inc.),
 the Gaussian 92(TM) system (copyright 1992, Gaussian, Inc.),
 the Gaussian 90(TM) system (copyright 1990, Gaussian, Inc.),
 the Gaussian 88(TM) system (copyright 1988, Gaussian, Inc.),
 the Gaussian 86(TM) system (copyright 1986, Carnegie Mellon
 University), and the Gaussian 82(TM) system (copyright 1983,
 Carnegie Mellon University). Gaussian is a federally registered
 trademark of Gaussian, Inc.
  
 This software contains proprietary and confidential information,
 including trade secrets, belonging to Gaussian, Inc.
  
 This software is provided under written license and may be
 used, copied, transmitted, or stored only in accord with that
 written license.
  
 The following legend is applicable only to US Government
 contracts under FAR:
  
                    RESTRICTED RIGHTS LEGEND
  
 Use, reproduction and disclosure by the US Government is
 subject to restrictions as set forth in subparagraphs (a)
 and (c) of the Commercial Computer Software - Restricted
 Rights clause in FAR 52.227-19.
  
 Gaussian, Inc.
 340 Quinnipiac St., Bldg. 40, Wallingford CT 06492
  
  
 ---------------------------------------------------------------
 Warning -- This program may not be used in any manner that
 competes with the business of Gaussian, Inc. or will provide
 assistance to any competitor of Gaussian, Inc.  The licensee
 of this program is prohibited from giving any competitor of
 Gaussian, Inc. access to this program.  By using this program,
 the user acknowledges that Gaussian, Inc. is engaged in the
 business of creating and licensing software in the field of
 computational chemistry and represents and warrants to the
 licensee that it is not a competitor of Gaussian, Inc. and that
 it will not use this program in any manner prohibited above.
 ---------------------------------------------------------------
  

 Cite this work as:
 Gaussian 09, Revision D.01,
 M. J. Frisch, G. W. Trucks, H. B. Schlegel, G. E. Scuseria, 
 M. A. Robb, J. R. Cheeseman, G. Scalmani, V. Barone, B. Mennucci, 
 G. A. Petersson, H. Nakatsuji, M. Caricato, X. Li, H. P. Hratchian, 
 A. F. Izmaylov, J. Bloino, G. Zheng, J. L. Sonnenberg, M. Hada, 
 M. Ehara, K. Toyota, R. Fukuda, J. Hasegawa, M. Ishida, T. Nakajima, 
 Y. Honda, O. Kitao, H. Nakai, T. Vreven, J. A. Montgomery, Jr., 
 J. E. Peralta, F. Ogliaro, M. Bearpark, J. J. Heyd, E. Brothers, 
 K. N. Kudin, V. N. Staroverov, T. Keith, R. Kobayashi, J. Normand, 
 K. Raghavachari, A. Rendell, J. C. Burant, S. S. Iyengar, J. Tomasi, 
 M. Cossi, N. Rega, J. M. Millam, M. Klene, J. E. Knox, J. B. Cross, 
 V. Bakken, C. Adamo, J. Jaramillo, R. Gomperts, R. E. Stratmann, 
 O. Yazyev, A. J. Austin, R. Cammi, C. Pomelli, J. W. Ochterski, 
 R. L. Martin, K. Morokuma, V. G. Zakrzewski, G. A. Voth, 
 P. Salvador, J. J. Dannenberg, S. Dapprich, A. D. Daniels, 
 O. Farkas, J. B. Foresman, J. V. Ortiz, J. Cioslowski, 
 and D. J. Fox, Gaussian, Inc., Wallingford CT, 2013.
 
 ******************************************
 Gaussian 09:  ES64L-G09RevD.01 24-Apr-2013
                 8-Jun-2021 
 ******************************************
 %nprocshared=16
 Will use up to   16 processors via shared memory.
 %mem=25GB
 %chk=NHC17.chk
 ----------------------------------------------------------
 #p opt freq n12sx/6-311+g(d,p) scrf=(iefpcm,solvent=water)
 ----------------------------------------------------------
 1/14=-1,18=20,19=15,26=3,38=1/1,3;
 2/9=110,12=2,17=6,18=5,40=1/2;
 3/5=4,6=6,7=111,11=2,16=1,25=1,30=1,70=2201,71=1,72=1,74=-69/1,2,3;
 4//1;
 5/5=2,38=5,53=1/2;
 6/7=2,8=2,9=2,10=2,28=1/1;
 7//1,2,3,16;
 1/14=-1,18=20,19=15,26=3/3(2);
 2/9=110/2;
 99//99;
 2/9=110/2;
 3/5=4,6=6,7=111,11=2,16=1,25=1,30=1,70=2205,71=1,72=1,74=-69/1,2,3;
 4/5=5,16=3,69=1/1;
 5/5=2,38=5,53=1/2;
 7//1,2,3,16;
 1/14=-1,18=20,19=15,26=3/3(-5);
 2/9=110/2;
 6/7=2,8=2,9=2,10=2,19=2,28=1/1;
 99/9=1/99;
 Leave Link    1 at Tue Jun  8 07:54:39 2021, MaxMem=  3355443200 cpu:         0.7
 (Enter /usr/local/gqt/g09/l101.exe)
 -----
 TITLE
 -----
 Symbolic Z-matrix:
 Charge =  0 Multiplicity = 1
 C                    0     5.68668   0.73743   0.61232 
 N                    0     6.18781  -0.58219   0.79626 
 C                    0     6.74188  -0.61942   2.1227 
 N                    0     7.93452   0.18035   2.19903 
 C                    0     7.54861   1.5568    2.04311 
 C                    0     6.83283   1.73553   0.71073 
 C                    0     8.76783  -0.16947   1.08053 
 C                    0     9.07442   1.08004   0.26551 
 C                    0     7.8142    1.49555  -0.42894 
 C                    0     5.0788   -1.49687   0.75986 
 H                    0     5.2117    0.81669  -0.39112 
 H                    0     4.93244   0.96049   1.39981 
 H                    0     8.456     2.20093   2.06566 
 H                    0     6.86613   1.84721   2.87296 
 H                    0     6.43018   2.77085   0.64182 
 H                    0     9.71904  -0.61269   1.45137 
 H                    0     8.23794  -0.90959   0.44006 
 H                    0     9.86426   0.85669  -0.48619 
 H                    0     9.43996   1.89611   0.92822 
 H                    0     7.97447   2.42728  -1.01626 
 H                    0     7.45209   0.73405  -1.15542 
 H                    0     5.44986  -2.53651   0.9021 
 H                    0     4.56576  -1.41807  -0.22469 
 H                    0     4.36278  -1.24409   1.57361 
 
 NAtoms=     24 NQM=       24 NQMF=       0 NMMI=      0 NMMIF=      0
                NMic=       0 NMicF=      0.
                    Isotopes and Nuclear Properties:
 (Nuclear quadrupole moments (NQMom) in fm**2, nuclear magnetic moments (NMagM)
  in nuclear magnetons)

  Atom         1           2           3           4           5           6           7           8           9          10
 IAtWgt=          12          14          12          14          12          12          12          12          12          12
 AtmWgt=  12.0000000  14.0030740  12.0000000  14.0030740  12.0000000  12.0000000  12.0000000  12.0000000  12.0000000  12.0000000
 NucSpn=           0           2           0           2           0           0           0           0           0           0
 AtZEff=   0.0000000   0.0000000   0.0000000   0.0000000   0.0000000   0.0000000   0.0000000   0.0000000   0.0000000   0.0000000
 NQMom=    0.0000000   2.0440000   0.0000000   2.0440000   0.0000000   0.0000000   0.0000000   0.0000000   0.0000000   0.0000000
 NMagM=    0.0000000   0.4037610   0.0000000   0.4037610   0.0000000   0.0000000   0.0000000   0.0000000   0.0000000   0.0000000
 AtZNuc=   6.0000000   7.0000000   6.0000000   7.0000000   6.0000000   6.0000000   6.0000000   6.0000000   6.0000000   6.0000000

  Atom        11          12          13          14          15          16          17          18          19          20
 IAtWgt=           1           1           1           1           1           1           1           1           1           1
 AtmWgt=   1.0078250   1.0078250   1.0078250   1.0078250   1.0078250   1.0078250   1.0078250   1.0078250   1.0078250   1.0078250
 NucSpn=           1           1           1           1           1           1           1           1           1           1
 AtZEff=   0.0000000   0.0000000   0.0000000   0.0000000   0.0000000   0.0000000   0.0000000   0.0000000   0.0000000   0.0000000
 NQMom=    0.0000000   0.0000000   0.0000000   0.0000000   0.0000000   0.0000000   0.0000000   0.0000000   0.0000000   0.0000000
 NMagM=    2.7928460   2.7928460   2.7928460   2.7928460   2.7928460   2.7928460   2.7928460   2.7928460   2.7928460   2.7928460
 AtZNuc=   1.0000000   1.0000000   1.0000000   1.0000000   1.0000000   1.0000000   1.0000000   1.0000000   1.0000000   1.0000000

  Atom        21          22          23          24
 IAtWgt=           1           1           1           1
 AtmWgt=   1.0078250   1.0078250   1.0078250   1.0078250
 NucSpn=           1           1           1           1
 AtZEff=   0.0000000   0.0000000   0.0000000   0.0000000
 NQMom=    0.0000000   0.0000000   0.0000000   0.0000000
 NMagM=    2.7928460   2.7928460   2.7928460   2.7928460
 AtZNuc=   1.0000000   1.0000000   1.0000000   1.0000000
 Leave Link  101 at Tue Jun  8 07:54:39 2021, MaxMem=  3355443200 cpu:         6.8
 (Enter /usr/local/gqt/g09/l103.exe)

 GradGradGradGradGradGradGradGradGradGradGradGradGradGradGradGradGradGrad
 Berny optimization.
 Initialization pass.
                           ----------------------------
                           !    Initial Parameters    !
                           ! (Angstroms and Degrees)  !
 --------------------------                            --------------------------
 ! Name  Definition              Value          Derivative Info.                !
 --------------------------------------------------------------------------------
 ! R1    R(1,2)                  1.4235         estimate D2E/DX2                !
 ! R2    R(1,6)                  1.523          estimate D2E/DX2                !
 ! R3    R(1,11)                 1.113          estimate D2E/DX2                !
 ! R4    R(1,12)                 1.113          estimate D2E/DX2                !
 ! R5    R(2,3)                  1.438          estimate D2E/DX2                !
 ! R6    R(2,10)                 1.438          estimate D2E/DX2                !
 ! R7    R(3,4)                  1.438          estimate D2E/DX2                !
 ! R8    R(4,5)                  1.438          estimate D2E/DX2                !
 ! R9    R(4,7)                  1.438          estimate D2E/DX2                !
 ! R10   R(5,6)                  1.523          estimate D2E/DX2                !
 ! R11   R(5,13)                 1.113          estimate D2E/DX2                !
 ! R12   R(5,14)                 1.113          estimate D2E/DX2                !
 ! R13   R(6,9)                  1.523          estimate D2E/DX2                !
 ! R14   R(6,15)                 1.113          estimate D2E/DX2                !
 ! R15   R(7,8)                  1.523          estimate D2E/DX2                !
 ! R16   R(7,16)                 1.113          estimate D2E/DX2                !
 ! R17   R(7,17)                 1.113          estimate D2E/DX2                !
 ! R18   R(8,9)                  1.4977         estimate D2E/DX2                !
 ! R19   R(8,18)                 1.113          estimate D2E/DX2                !
 ! R20   R(8,19)                 1.113          estimate D2E/DX2                !
 ! R21   R(9,20)                 1.113          estimate D2E/DX2                !
 ! R22   R(9,21)                 1.113          estimate D2E/DX2                !
 ! R23   R(10,22)                1.113          estimate D2E/DX2                !
 ! R24   R(10,23)                1.113          estimate D2E/DX2                !
 ! R25   R(10,24)                1.113          estimate D2E/DX2                !
 ! A1    A(2,1,6)              109.5264         estimate D2E/DX2                !
 ! A2    A(2,1,11)             109.4353         estimate D2E/DX2                !
 ! A3    A(2,1,12)             109.4464         estimate D2E/DX2                !
 ! A4    A(6,1,11)             109.4352         estimate D2E/DX2                !
 ! A5    A(6,1,12)             109.4464         estimate D2E/DX2                !
 ! A6    A(11,1,12)            109.5375         estimate D2E/DX2                !
 ! A7    A(1,2,3)              106.1906         estimate D2E/DX2                !
 ! A8    A(1,2,10)             108.3542         estimate D2E/DX2                !
 ! A9    A(3,2,10)             107.7            estimate D2E/DX2                !
 ! A10   A(2,3,4)              110.74           estimate D2E/DX2                !
 ! A11   A(3,4,5)              107.7            estimate D2E/DX2                !
 ! A12   A(3,4,7)              107.7            estimate D2E/DX2                !
 ! A13   A(5,4,7)              107.7            estimate D2E/DX2                !
 ! A14   A(4,5,6)              109.47           estimate D2E/DX2                !
 ! A15   A(4,5,13)             109.4493         estimate D2E/DX2                !
 ! A16   A(4,5,14)             109.4793         estimate D2E/DX2                !
 ! A17   A(6,5,13)             109.4493         estimate D2E/DX2                !
 ! A18   A(6,5,14)             109.4793         estimate D2E/DX2                !
 ! A19   A(13,5,14)            109.5001         estimate D2E/DX2                !
 ! A20   A(1,6,5)              109.47           estimate D2E/DX2                !
 ! A21   A(1,6,9)              109.47           estimate D2E/DX2                !
 ! A22   A(1,6,15)             109.4725         estimate D2E/DX2                !
 ! A23   A(5,6,9)              109.47           estimate D2E/DX2                !
 ! A24   A(5,6,15)             109.4725         estimate D2E/DX2                !
 ! A25   A(9,6,15)             109.4724         estimate D2E/DX2                !
 ! A26   A(4,7,8)              109.47           estimate D2E/DX2                !
 ! A27   A(4,7,16)             109.4493         estimate D2E/DX2                !
 ! A28   A(4,7,17)             109.4793         estimate D2E/DX2                !
 ! A29   A(8,7,16)             109.4493         estimate D2E/DX2                !
 ! A30   A(8,7,17)             109.4793         estimate D2E/DX2                !
 ! A31   A(16,7,17)            109.5            estimate D2E/DX2                !
 ! A32   A(7,8,9)              107.8399         estimate D2E/DX2                !
 ! A33   A(7,8,18)             109.8548         estimate D2E/DX2                !
 ! A34   A(7,8,19)             110.4278         estimate D2E/DX2                !
 ! A35   A(9,8,18)             109.8548         estimate D2E/DX2                !
 ! A36   A(9,8,19)             110.4278         estimate D2E/DX2                !
 ! A37   A(18,8,19)            108.434          estimate D2E/DX2                !
 ! A38   A(6,9,8)              103.824          estimate D2E/DX2                !
 ! A39   A(6,9,20)             110.84           estimate D2E/DX2                !
 ! A40   A(6,9,21)             112.7431         estimate D2E/DX2                !
 ! A41   A(8,9,20)             110.8401         estimate D2E/DX2                !
 ! A42   A(8,9,21)             112.7431         estimate D2E/DX2                !
 ! A43   A(20,9,21)            105.9722         estimate D2E/DX2                !
 ! A44   A(2,10,22)            109.5            estimate D2E/DX2                !
 ! A45   A(2,10,23)            109.4418         estimate D2E/DX2                !
 ! A46   A(2,10,24)            109.4619         estimate D2E/DX2                !
 ! A47   A(22,10,23)           109.4418         estimate D2E/DX2                !
 ! A48   A(22,10,24)           109.4618         estimate D2E/DX2                !
 ! A49   A(23,10,24)           109.5199         estimate D2E/DX2                !
 ! D1    D(6,1,2,3)             61.9369         estimate D2E/DX2                !
 ! D2    D(6,1,2,10)           177.3973         estimate D2E/DX2                !
 ! D3    D(11,1,2,3)          -178.0954         estimate D2E/DX2                !
 ! D4    D(11,1,2,10)          -62.635          estimate D2E/DX2                !
 ! D5    D(12,1,2,3)           -58.0513         estimate D2E/DX2                !
 ! D6    D(12,1,2,10)           57.409          estimate D2E/DX2                !
 ! D7    D(2,1,6,5)            -55.8604         estimate D2E/DX2                !
 ! D8    D(2,1,6,9)             64.1366         estimate D2E/DX2                !
 ! D9    D(2,1,6,15)          -175.8619         estimate D2E/DX2                !
 ! D10   D(11,1,6,5)          -175.8281         estimate D2E/DX2                !
 ! D11   D(11,1,6,9)           -55.8312         estimate D2E/DX2                !
 ! D12   D(11,1,6,15)           64.1704         estimate D2E/DX2                !
 ! D13   D(12,1,6,5)            64.1279         estimate D2E/DX2                !
 ! D14   D(12,1,6,9)          -175.8752         estimate D2E/DX2                !
 ! D15   D(12,1,6,15)          -55.8737         estimate D2E/DX2                !
 ! D16   D(1,2,3,4)            -69.4339         estimate D2E/DX2                !
 ! D17   D(10,2,3,4)           174.663          estimate D2E/DX2                !
 ! D18   D(1,2,10,22)         -180.0            estimate D2E/DX2                !
 ! D19   D(1,2,10,23)           60.0363         estimate D2E/DX2                !
 ! D20   D(1,2,10,24)          -59.9996         estimate D2E/DX2                !
 ! D21   D(3,2,10,22)          -65.5275         estimate D2E/DX2                !
 ! D22   D(3,2,10,23)          174.5089         estimate D2E/DX2                !
 ! D23   D(3,2,10,24)           54.473          estimate D2E/DX2                !
 ! D24   D(2,3,4,5)             67.8527         estimate D2E/DX2                !
 ! D25   D(2,3,4,7)            -48.0503         estimate D2E/DX2                !
 ! D26   D(3,4,5,6)            -58.2753         estimate D2E/DX2                !
 ! D27   D(3,4,5,13)          -178.2343         estimate D2E/DX2                !
 ! D28   D(3,4,5,14)            61.7388         estimate D2E/DX2                !
 ! D29   D(7,4,5,6)             57.6277         estimate D2E/DX2                !
 ! D30   D(7,4,5,13)           -62.3313         estimate D2E/DX2                !
 ! D31   D(7,4,5,14)           177.6419         estimate D2E/DX2                !
 ! D32   D(3,4,7,8)            123.3296         estimate D2E/DX2                !
 ! D33   D(3,4,7,16)          -116.7114         estimate D2E/DX2                !
 ! D34   D(3,4,7,17)             3.3155         estimate D2E/DX2                !
 ! D35   D(5,4,7,8)              7.4265         estimate D2E/DX2                !
 ! D36   D(5,4,7,16)           127.3856         estimate D2E/DX2                !
 ! D37   D(5,4,7,17)          -112.5876         estimate D2E/DX2                !
 ! D38   D(4,5,6,1)             53.4449         estimate D2E/DX2                !
 ! D39   D(4,5,6,9)            -66.552          estimate D2E/DX2                !
 ! D40   D(4,5,6,15)           173.4465         estimate D2E/DX2                !
 ! D41   D(13,5,6,1)           173.4039         estimate D2E/DX2                !
 ! D42   D(13,5,6,9)            53.407          estimate D2E/DX2                !
 ! D43   D(13,5,6,15)          -66.5945         estimate D2E/DX2                !
 ! D44   D(14,5,6,1)           -66.5692         estimate D2E/DX2                !
 ! D45   D(14,5,6,9)           173.4338         estimate D2E/DX2                !
 ! D46   D(14,5,6,15)           53.4324         estimate D2E/DX2                !
 ! D47   D(1,6,9,8)           -116.0287         estimate D2E/DX2                !
 ! D48   D(1,6,9,20)           124.9137         estimate D2E/DX2                !
 ! D49   D(1,6,9,21)             6.3049         estimate D2E/DX2                !
 ! D50   D(5,6,9,8)              3.9683         estimate D2E/DX2                !
 ! D51   D(5,6,9,20)          -115.0894         estimate D2E/DX2                !
 ! D52   D(5,6,9,21)           126.3019         estimate D2E/DX2                !
 ! D53   D(15,6,9,8)           123.9698         estimate D2E/DX2                !
 ! D54   D(15,6,9,20)            4.9121         estimate D2E/DX2                !
 ! D55   D(15,6,9,21)         -113.6966         estimate D2E/DX2                !
 ! D56   D(4,7,8,9)            -70.705          estimate D2E/DX2                !
 ! D57   D(4,7,8,18)           169.5885         estimate D2E/DX2                !
 ! D58   D(4,7,8,19)            50.034          estimate D2E/DX2                !
 ! D59   D(16,7,8,9)           169.336          estimate D2E/DX2                !
 ! D60   D(16,7,8,18)           49.6294         estimate D2E/DX2                !
 ! D61   D(16,7,8,19)          -69.925          estimate D2E/DX2                !
 ! D62   D(17,7,8,9)            49.3091         estimate D2E/DX2                !
 ! D63   D(17,7,8,18)          -70.3974         estimate D2E/DX2                !
 ! D64   D(17,7,8,19)          170.0481         estimate D2E/DX2                !
 ! D65   D(7,8,9,6)             59.1432         estimate D2E/DX2                !
 ! D66   D(7,8,9,20)           178.2008         estimate D2E/DX2                !
 ! D67   D(7,8,9,21)           -63.1903         estimate D2E/DX2                !
 ! D68   D(18,8,9,6)           178.8498         estimate D2E/DX2                !
 ! D69   D(18,8,9,20)          -62.0927         estimate D2E/DX2                !
 ! D70   D(18,8,9,21)           56.5162         estimate D2E/DX2                !
 ! D71   D(19,8,9,6)           -61.5958         estimate D2E/DX2                !
 ! D72   D(19,8,9,20)           57.4617         estimate D2E/DX2                !
 ! D73   D(19,8,9,21)          176.0707         estimate D2E/DX2                !
 --------------------------------------------------------------------------------
 Trust Radius=3.00D-01 FncErr=1.00D-07 GrdErr=1.00D-06
 Number of steps in this run=    144 maximum allowed number of steps=    144.
 GradGradGradGradGradGradGradGradGradGradGradGradGradGradGradGradGradGrad

 Leave Link  103 at Tue Jun  8 07:54:39 2021, MaxMem=  3355443200 cpu:         0.1
 (Enter /usr/local/gqt/g09/l202.exe)
                          Input orientation:                          
 ---------------------------------------------------------------------
 Center     Atomic      Atomic             Coordinates (Angstroms)
 Number     Number       Type             X           Y           Z
 ---------------------------------------------------------------------
      1          6           0        5.686677    0.737434    0.612320
      2          7           0        6.187806   -0.582189    0.796257
      3          6           0        6.741880   -0.619417    2.122703
      4          7           0        7.934518    0.180353    2.199032
      5          6           0        7.548611    1.556801    2.043109
      6          6           0        6.832826    1.735526    0.710728
      7          6           0        8.767834   -0.169469    1.080526
      8          6           0        9.074424    1.080043    0.265510
      9          6           0        7.814201    1.495548   -0.428941
     10          6           0        5.078804   -1.496865    0.759863
     11          1           0        5.211704    0.816692   -0.391118
     12          1           0        4.932439    0.960492    1.399809
     13          1           0        8.456004    2.200927    2.065659
     14          1           0        6.866127    1.847206    2.872957
     15          1           0        6.430176    2.770848    0.641815
     16          1           0        9.719043   -0.612693    1.451365
     17          1           0        8.237941   -0.909591    0.440057
     18          1           0        9.864256    0.856691   -0.486188
     19          1           0        9.439963    1.896109    0.928221
     20          1           0        7.974475    2.427284   -1.016264
     21          1           0        7.452094    0.734052   -1.155419
     22          1           0        5.449860   -2.536507    0.902102
     23          1           0        4.565765   -1.418073   -0.224694
     24          1           0        4.362780   -1.244092    1.573610
 ---------------------------------------------------------------------
                    Distance matrix (angstroms):
                    1          2          3          4          5
     1  C    0.000000
     2  N    1.423506   0.000000
     3  C    2.288177   1.438000   0.000000
     4  N    2.807273   2.366485   1.438000   0.000000
     5  C    2.487030   2.825192   2.322299   1.438000   0.000000
     6  C    1.523000   2.407316   2.747308   2.418127   1.523000
     7  C    3.245800   2.628249   2.322300   1.438001   2.322300
     8  C    3.422643   3.373021   3.431922   2.418126   2.390661
     9  C    2.487030   2.909169   3.483366   2.941166   2.487031
    10  C    2.320209   1.437999   2.322298   3.611007   4.131772
    11  H    1.113000   2.078341   3.274621   3.811498   3.454614
    12  H    1.113000   2.078482   2.508538   3.203100   2.759307
    13  H    3.452996   3.808128   3.300881   2.091042   1.113000
    14  H    2.780859   3.267225   2.581191   2.091419   1.112999
    15  H    2.165279   3.365331   3.712692   3.376186   2.165279
    16  H    4.334376   3.591620   3.051924   2.091042   3.125322
    17  H    3.041597   2.106448   2.270176   2.091420   3.021265
    18  H    4.321239   4.151063   4.328330   3.375163   3.499958
    19  H    3.940746   4.090954   3.877410   2.612498   2.221557
    20  H    3.277484   3.941363   4.544754   3.922808   3.209184
    21  H    2.498321   2.672069   3.616955   3.433898   3.304060
    22  H    3.295261   2.091680   2.614272   3.903445   4.739391
    23  H    2.569678   2.090947   3.299030   4.447236   4.784368
    24  H    2.569674   2.091199   2.520285   3.895832   4.267898
                    6          7          8          9         10
     6  C    0.000000
     7  C    2.740440   0.000000
     8  C    2.377528   1.523000   0.000000
     9  C    1.523001   2.441350   1.497688   0.000000
    10  C    3.677956   3.933668   4.780148   4.224948   0.000000
    11  H    2.164800   3.972947   3.926973   2.689845   2.587463
    12  H    2.164944   4.011111   4.296157   3.454731   2.543532
    13  H    2.164981   2.585827   2.208927   2.670674   5.175350
    14  H    2.165367   3.300951   3.501984   3.453265   4.340795
    15  H    1.112999   3.781875   3.161088   2.165279   4.478115
    16  H    3.793801   1.112999   2.164981   3.407147   4.774071
    17  H    3.007367   1.112999   2.165367   2.592182   3.229135
    18  H    3.375578   2.170193   1.113001   2.148055   5.476534
    19  H    2.621117   2.177514   1.113000   2.155328   5.528139
    20  H    2.182749   3.430608   2.160530   1.113000   5.190230
    21  H    2.206569   2.747175   2.184194   1.113000   3.778598
    22  H    4.494384   4.079664   5.159665   4.859964   1.113000
    23  H    3.994968   4.573838   5.177730   4.368437   1.113000
    24  H    3.965327   4.560970   5.414085   4.840263   1.113000
                   11         12         13         14         15
    11  H    0.000000
    12  H    1.818265   0.000000
    13  H    4.298528   3.794410   0.000000
    14  H    3.801744   2.587581   1.817844   0.000000
    15  H    2.523955   2.468838   2.540890   2.453806   0.000000
    16  H    5.074839   5.038764   3.144691   4.026308   4.787522
    17  H    3.581761   3.917228   3.516455   3.924386   4.105405
    18  H    4.653695   5.281153   3.209683   4.610179   4.090146
    19  H    4.558944   4.627693   1.534554   3.226301   3.147382
    20  H    3.258484   4.152454   3.127516   4.085458   2.291751
    21  H    2.368614   3.595709   3.678981   4.220223   2.902224
    22  H    3.601816   3.569935   5.730100   5.010691   5.403405
    23  H    2.332190   2.903624   5.785917   5.054617   4.666254
    24  H    2.971138   2.283617   5.372593   4.184635   4.611086
                   16         17         18         19         20
    16  H    0.000000
    17  H    1.817844   0.000000
    18  H    2.436039   2.573438   0.000000
    19  H    2.577916   3.091135   1.805815   0.000000
    20  H    4.286510   3.650345   2.513765   2.492152   0.000000
    21  H    3.707843   2.421706   2.506279   3.105407   1.777437
    22  H    4.714729   3.260941   5.738295   5.964033   5.890079
    23  H    5.478511   3.766341   5.772083   6.005899   5.199294
    24  H    5.394735   4.051383   6.238774   6.004596   5.764615
                   21         22         23         24
    21  H    0.000000
    22  H    4.351883   0.000000
    23  H    3.718708   1.817192   0.000000
    24  H    4.572145   1.817416   1.818068   0.000000
 Stoichiometry    C8H14N2
 Framework group  C1[X(C8H14N2)]
 Deg. of freedom    66
 Full point group                 C1      NOp   1
 Largest Abelian subgroup         C1      NOp   1
 Largest concise Abelian subgroup C1      NOp   1
                         Standard orientation:                         
 ---------------------------------------------------------------------
 Center     Atomic      Atomic             Coordinates (Angstroms)
 Number     Number       Type             X           Y           Z
 ---------------------------------------------------------------------
      1          6           0       -0.990103    1.127910    0.327655
      2          7           0       -1.335673   -0.066176   -0.365964
      3          6           0       -0.989149   -1.153026    0.509548
      4          7           0        0.438489   -1.268772    0.637213
      5          6           0        0.909065   -0.111242    1.348920
      6          6           0        0.509871    1.147854    0.590730
      7          6           0        1.000552   -1.226990   -0.685733
      8          6           0        2.012762   -0.092274   -0.771635
      9          6           0        1.257168    1.200330   -0.735289
     10          6           0       -2.762092   -0.088156   -0.546763
     11          1           0       -1.269291    2.009764   -0.291341
     12          1           0       -1.536745    1.165095    1.296453
     13          1           0        2.017746   -0.155343    1.436386
     14          1           0        0.456669   -0.091378    2.365636
     15          1           0        0.768181    2.044165    1.197913
     16          1           0        1.507842   -2.193415   -0.903559
     17          1           0        0.189177   -1.057595   -1.428528
     18          1           0        2.586134   -0.168362   -1.722543
     19          1           0        2.730389   -0.146757    0.077372
     20          1           0        1.954386    2.067449   -0.762826
     21          1           0        0.577430    1.326070   -1.607592
     22          1           0       -3.053699   -1.015757   -1.088327
     23          1           0       -3.074106    0.800595   -1.139670
     24          1           0       -3.262263   -0.066328    0.447280
 ---------------------------------------------------------------------
 Rotational constants (GHZ):      2.3818146      1.3368794      1.1931773
 Leave Link  202 at Tue Jun  8 07:54:39 2021, MaxMem=  3355443200 cpu:         0.0
 (Enter /usr/local/gqt/g09/l301.exe)
 Standard basis: 6-311+G(d,p) (5D, 7F)
 Ernie: Thresh=  0.10000D-02 Tol=  0.10000D-05 Strict=F.
 There are   314 symmetry adapted cartesian basis functions of A   symmetry.
 There are   304 symmetry adapted basis functions of A   symmetry.
   304 basis functions,   472 primitive gaussians,   314 cartesian basis functions
    38 alpha electrons       38 beta electrons
       nuclear repulsion energy       592.8487655080 Hartrees.
 IExCor= 5547 DFT=T Ex+Corr=N12SX ExCW=0 ScaHFX=  0.250000
 ScaDFX=  1.000000  1.000000  1.000000  1.000000 ScalE2=  1.000000  1.000000
 IRadAn=      0 IRanWt=     -1 IRanGd=            0 ICorTp=0 IEmpDi=  4
  HFx wShort=  0.110000 wLong=  0.000000 cFull=  0.000000 cShort=  1.000000 cLong=  0.000000
  DFx wShort=  0.110000 wLong=  0.000000 cFull=  0.000000 cShort=  1.000000 cLong=  0.000000
 NAtoms=   24 NActive=   24 NUniq=   24 SFac= 1.00D+00 NAtFMM=   60 NAOKFM=F Big=F
 Integral buffers will be    131072 words long.
 Raffenetti 2 integral format.
 Two-electron integral symmetry is turned on.
 ------------------------------------------------------------------------------
 Polarizable Continuum Model (PCM)
 =================================
 Model                : PCM (using non-symmetric T matrix).
 Atomic radii         : UFF (Universal Force Field).
 Polarization charges : Total charges.
 Charge compensation  : None.
 Solution method      : On-the-fly selection.
 Cavity type          : Scaled VdW (van der Waals Surface) (Alpha=1.100).
 Cavity algorithm     : GePol (No added spheres)
                        Default sphere list used, NSphG=   24.
                        Lebedev-Laikov grids with approx.  5.0 points / Ang**2.
                        Smoothing algorithm: Karplus/York (Gamma=1.0000).
                        Polarization charges: spherical gaussians, with
                                              point-specific exponents (IZeta= 3).
                        Self-potential: point-specific (ISelfS= 7).
                        Self-field    : sphere-specific E.n sum rule (ISelfD= 2).
 1st derivatives      : Analytical E(r).r(x)/FMM algorithm (CHGder, D1EAlg=3).
                        Cavity 1st derivative terms included.
 Solvent              : Water, Eps=  78.355300 Eps(inf)=   1.777849
 ------------------------------------------------------------------------------
 GePol: Number of generator spheres                  =      24
 GePol: Total number of spheres                      =      24
 GePol: Number of exposed spheres                    =      24 (100.00%)
 GePol: Number of points                             =    1522
 GePol: Average weight of points                     =       0.13
 GePol: Minimum weight of points                     =   0.33D-10
 GePol: Maximum weight of points                     =    0.20577
 GePol: Number of points with low weight             =     103
 GePol: Fraction of low-weight points (<1% of avg)   =       6.77%
 GePol: Cavity surface area                          =    203.461 Ang**2
 GePol: Cavity volume                                =    214.743 Ang**3
 Leave Link  301 at Tue Jun  8 07:54:39 2021, MaxMem=  3355443200 cpu:         0.7
 (Enter /usr/local/gqt/g09/l302.exe)
 NPDir=0 NMtPBC=     1 NCelOv=     1 NCel=       1 NClECP=     1 NCelD=      1
         NCelK=      1 NCelE2=     1 NClLst=     1 CellRange=     0.0.
 One-electron integrals computed using PRISM.
 NBasis=   304 RedAO= T EigKep=  5.03D-06  NBF=   304
 NBsUse=   304 1.00D-06 EigRej= -1.00D+00 NBFU=   304
 Precomputing XC quadrature grid using
 IXCGrd= 4 IRadAn=           0 IRanWt=          -1 IRanGd=           0 AccXCQ= 0.00D+00.
 Generated NRdTot=       0 NPtTot=           0 NUsed=           0 NTot=          32
 NSgBfM=   314   314   314   314   314 MxSgAt=    24 MxSgA2=    24.
 Leave Link  302 at Tue Jun  8 07:54:40 2021, MaxMem=  3355443200 cpu:         4.7
 (Enter /usr/local/gqt/g09/l303.exe)
 DipDrv:  MaxL=1.
 Leave Link  303 at Tue Jun  8 07:54:40 2021, MaxMem=  3355443200 cpu:         0.7
 (Enter /usr/local/gqt/g09/l401.exe)
 ExpMin= 4.38D-02 ExpMax= 6.29D+03 ExpMxC= 9.49D+02 IAcc=2 IRadAn=         4 AccDes= 0.00D+00
 Harris functional with IExCor= 5547 and IRadAn=       4 diagonalized for initial guess.
 HarFok:  IExCor= 5547 AccDes= 0.00D+00 IRadAn=         4 IDoV= 1 UseB2=F ITyADJ=14
 ICtDFT=  3500011 ScaDFX=  1.000000  1.000000  1.000000  1.000000
 FoFCou: FMM=F IPFlag=           0 FMFlag=      100000 FMFlg1=           0
         NFxFlg=           0 DoJE=T BraDBF=F KetDBF=T FulRan=T
         wScrn=  0.000000 ICntrl=     500 IOpCl=  0 I1Cent=   200000004 NGrid=           0
         NMat0=    1 NMatS0=      1 NMatT0=    0 NMatD0=    1 NMtDS0=    0 NMtDT0=    0
 Petite list used in FoFCou.
 Harris En= -408.985031818321    
 JPrj=0 DoOrth=F DoCkMO=F.
 Leave Link  401 at Tue Jun  8 07:54:41 2021, MaxMem=  3355443200 cpu:        16.0
 (Enter /usr/local/gqt/g09/l502.exe)
 Closed shell SCF:
 Using DIIS extrapolation, IDIIS=  1040.
 Integral symmetry usage will be decided dynamically.
 Keep R1 ints in memory in canonical form, NReq=2165245454.
 IVT=      321714 IEndB=      321714 NGot=  3355443200 MDV=  1205825527
 LenX=  1205825527 LenY=  1205726490
 Requested convergence on RMS density matrix=1.00D-08 within 128 cycles.
 Requested convergence on MAX density matrix=1.00D-06.
 Requested convergence on             energy=1.00D-06.
 No special actions if energy rises.
 FoFCou: FMM=F IPFlag=           0 FMFlag=           0 FMFlg1=           0
         NFxFlg=           0 DoJE=F BraDBF=F KetDBF=F FulRan=T
         wScrn=  0.000000 ICntrl=     600 IOpCl=  0 I1Cent=           0 NGrid=           0
         NMat0=    1 NMatS0=  46360 NMatT0=    0 NMatD0=    1 NMtDS0=    0 NMtDT0=    0
 Symmetry not used in FoFCou.

 Cycle   1  Pass 1  IDiag  1:
 Inv3:  Mode=1 IEnd=     6949452.
 Iteration    1 A*A^-1 deviation from unit magnitude is 4.55D-15 for    340.
 Iteration    1 A*A^-1 deviation from orthogonality  is 4.58D-15 for   1395    324.
 Iteration    1 A^-1*A deviation from unit magnitude is 4.00D-15 for    323.
 Iteration    1 A^-1*A deviation from orthogonality  is 3.54D-12 for   1365   1347.
 E= -422.364369861477    
 DIIS: error= 5.52D-02 at cycle   1 NSaved=   1.
 NSaved= 1 IEnMin= 1 EnMin= -422.364369861477     IErMin= 1 ErrMin= 5.52D-02
 ErrMax= 5.52D-02  0.00D+00 EMaxC= 1.00D-01 BMatC= 1.04D+00 BMatP= 1.04D+00
 IDIUse=3 WtCom= 4.48D-01 WtEn= 5.52D-01
 Coeff-Com:  0.100D+01
 Coeff-En:   0.100D+01
 Coeff:      0.100D+01
 Gap=     0.100 Goal=   None    Shift=    0.000
 GapD=    0.100 DampG=1.000 DampE=0.500 DampFc=0.5000 IDamp=-1.
 Damping current iteration by 5.00D-01
 RMSDP=5.89D-03 MaxDP=5.42D-01              OVMax= 1.08D-01

 Cycle   2  Pass 1  IDiag  1:
 E= -422.427952941997     Delta-E=       -0.063583080519 Rises=F Damp=T
 DIIS: error= 2.48D-02 at cycle   2 NSaved=   2.
 NSaved= 2 IEnMin= 2 EnMin= -422.427952941997     IErMin= 2 ErrMin= 2.48D-02
 ErrMax= 2.48D-02  0.00D+00 EMaxC= 1.00D-01 BMatC= 2.13D-01 BMatP= 1.04D+00
 IDIUse=3 WtCom= 7.52D-01 WtEn= 2.48D-01
 Coeff-Com: -0.621D+00 0.162D+01
 Coeff-En:   0.000D+00 0.100D+01
 Coeff:     -0.467D+00 0.147D+01
 Gap=     0.157 Goal=   None    Shift=    0.000
 RMSDP=3.55D-03 MaxDP=1.70D-01 DE=-6.36D-02 OVMax= 1.47D-01

 Cycle   3  Pass 1  IDiag  1:
 E= -422.435636574210     Delta-E=       -0.007683632214 Rises=F Damp=F
 DIIS: error= 1.12D-02 at cycle   3 NSaved=   3.
 NSaved= 3 IEnMin= 3 EnMin= -422.435636574210     IErMin= 3 ErrMin= 1.12D-02
 ErrMax= 1.12D-02  0.00D+00 EMaxC= 1.00D-01 BMatC= 7.55D-02 BMatP= 2.13D-01
 IDIUse=3 WtCom= 8.88D-01 WtEn= 1.12D-01
 Coeff-Com: -0.402D+00 0.881D+00 0.521D+00
 Coeff-En:   0.000D+00 0.435D+00 0.565D+00
 Coeff:     -0.357D+00 0.831D+00 0.526D+00
 Gap=     0.110 Goal=   None    Shift=    0.000
 RMSDP=3.13D-03 MaxDP=2.75D-01 DE=-7.68D-03 OVMax= 7.65D-02

 Cycle   4  Pass 1  IDiag  1:
 E= -422.503860691942     Delta-E=       -0.068224117732 Rises=F Damp=F
 DIIS: error= 2.19D-03 at cycle   4 NSaved=   4.
 NSaved= 4 IEnMin= 4 EnMin= -422.503860691942     IErMin= 4 ErrMin= 2.19D-03
 ErrMax= 2.19D-03  0.00D+00 EMaxC= 1.00D-01 BMatC= 1.83D-03 BMatP= 7.55D-02
 IDIUse=3 WtCom= 9.78D-01 WtEn= 2.19D-02
 Coeff-Com: -0.193D+00 0.424D+00 0.300D+00 0.469D+00
 Coeff-En:   0.000D+00 0.000D+00 0.000D+00 0.100D+01
 Coeff:     -0.189D+00 0.415D+00 0.294D+00 0.480D+00
 Gap=     0.102 Goal=   None    Shift=    0.000
 RMSDP=2.95D-04 MaxDP=1.08D-02 DE=-6.82D-02 OVMax= 1.63D-02

 Cycle   5  Pass 1  IDiag  1:
 E= -422.505290681181     Delta-E=       -0.001429989239 Rises=F Damp=F
 DIIS: error= 5.81D-04 at cycle   5 NSaved=   5.
 NSaved= 5 IEnMin= 5 EnMin= -422.505290681181     IErMin= 5 ErrMin= 5.81D-04
 ErrMax= 5.81D-04  0.00D+00 EMaxC= 1.00D-01 BMatC= 1.44D-04 BMatP= 1.83D-03
 IDIUse=3 WtCom= 9.94D-01 WtEn= 5.81D-03
 Coeff-Com: -0.147D-01 0.326D-01 0.483D-01 0.273D+00 0.660D+00
 Coeff-En:   0.000D+00 0.000D+00 0.000D+00 0.138D-01 0.986D+00
 Coeff:     -0.146D-01 0.324D-01 0.480D-01 0.272D+00 0.662D+00
 Gap=     0.103 Goal=   None    Shift=    0.000
 RMSDP=1.62D-04 MaxDP=1.18D-02 DE=-1.43D-03 OVMax= 5.13D-03

 Cycle   6  Pass 1  IDiag  1:
 E= -422.505414564641     Delta-E=       -0.000123883461 Rises=F Damp=F
 DIIS: error= 1.48D-04 at cycle   6 NSaved=   6.
 NSaved= 6 IEnMin= 6 EnMin= -422.505414564641     IErMin= 6 ErrMin= 1.48D-04
 ErrMax= 1.48D-04  0.00D+00 EMaxC= 1.00D-01 BMatC= 1.27D-05 BMatP= 1.44D-04
 IDIUse=3 WtCom= 9.99D-01 WtEn= 1.48D-03
 Coeff-Com:  0.407D-02-0.917D-02 0.622D-02 0.104D+00 0.340D+00 0.555D+00
 Coeff-En:   0.000D+00 0.000D+00 0.000D+00 0.000D+00 0.000D+00 0.100D+01
 Coeff:      0.406D-02-0.915D-02 0.621D-02 0.104D+00 0.339D+00 0.555D+00
 Gap=     0.103 Goal=   None    Shift=    0.000
 RMSDP=2.52D-05 MaxDP=1.08D-03 DE=-1.24D-04 OVMax= 1.60D-03

 Cycle   7  Pass 1  IDiag  1:
 E= -422.505424733515     Delta-E=       -0.000010168874 Rises=F Damp=F
 DIIS: error= 4.66D-05 at cycle   7 NSaved=   7.
 NSaved= 7 IEnMin= 7 EnMin= -422.505424733515     IErMin= 7 ErrMin= 4.66D-05
 ErrMax= 4.66D-05  0.00D+00 EMaxC= 1.00D-01 BMatC= 1.08D-06 BMatP= 1.27D-05
 IDIUse=1 WtCom= 1.00D+00 WtEn= 0.00D+00
 Coeff-Com:  0.336D-02-0.747D-02-0.820D-03 0.313D-01 0.122D+00 0.289D+00
 Coeff-Com:  0.563D+00
 Coeff:      0.336D-02-0.747D-02-0.820D-03 0.313D-01 0.122D+00 0.289D+00
 Coeff:      0.563D+00
 Gap=     0.103 Goal=   None    Shift=    0.000
 RMSDP=9.20D-06 MaxDP=4.70D-04 DE=-1.02D-05 OVMax= 2.29D-04

 Cycle   8  Pass 1  IDiag  1:
 E= -422.505425572325     Delta-E=       -0.000000838809 Rises=F Damp=F
 DIIS: error= 1.06D-05 at cycle   8 NSaved=   8.
 NSaved= 8 IEnMin= 8 EnMin= -422.505425572325     IErMin= 8 ErrMin= 1.06D-05
 ErrMax= 1.06D-05  0.00D+00 EMaxC= 1.00D-01 BMatC= 6.25D-08 BMatP= 1.08D-06
 IDIUse=1 WtCom= 1.00D+00 WtEn= 0.00D+00
 Coeff-Com:  0.799D-03-0.175D-02-0.490D-03 0.499D-02 0.224D-01 0.778D-01
 Coeff-Com:  0.239D+00 0.657D+00
 Coeff:      0.799D-03-0.175D-02-0.490D-03 0.499D-02 0.224D-01 0.778D-01
 Coeff:      0.239D+00 0.657D+00
 Gap=     0.103 Goal=   None    Shift=    0.000
 RMSDP=3.89D-06 MaxDP=2.20D-04 DE=-8.39D-07 OVMax= 2.00D-04

 Cycle   9  Pass 1  IDiag  1:
 E= -422.505425628629     Delta-E=       -0.000000056304 Rises=F Damp=F
 DIIS: error= 5.71D-06 at cycle   9 NSaved=   9.
 NSaved= 9 IEnMin= 9 EnMin= -422.505425628629     IErMin= 9 ErrMin= 5.71D-06
 ErrMax= 5.71D-06  0.00D+00 EMaxC= 1.00D-01 BMatC= 1.62D-08 BMatP= 6.25D-08
 IDIUse=1 WtCom= 1.00D+00 WtEn= 0.00D+00
 Coeff-Com: -0.453D-05 0.330D-04-0.289D-03-0.249D-02-0.800D-02-0.185D-02
 Coeff-Com:  0.357D-01 0.370D+00 0.607D+00
 Coeff:     -0.453D-05 0.330D-04-0.289D-03-0.249D-02-0.800D-02-0.185D-02
 Coeff:      0.357D-01 0.370D+00 0.607D+00
 Gap=     0.103 Goal=   None    Shift=    0.000
 RMSDP=1.66D-06 MaxDP=7.96D-05 DE=-5.63D-08 OVMax= 6.25D-05

 Cycle  10  Pass 1  IDiag  1:
 E= -422.505425646010     Delta-E=       -0.000000017381 Rises=F Damp=F
 DIIS: error= 8.88D-07 at cycle  10 NSaved=  10.
 NSaved=10 IEnMin=10 EnMin= -422.505425646010     IErMin=10 ErrMin= 8.88D-07
 ErrMax= 8.88D-07  0.00D+00 EMaxC= 1.00D-01 BMatC= 3.69D-10 BMatP= 1.62D-08
 IDIUse=1 WtCom= 1.00D+00 WtEn= 0.00D+00
 Coeff-Com: -0.890D-04 0.194D-03 0.806D-05-0.958D-03-0.372D-02-0.589D-02
 Coeff-Com: -0.187D-01 0.312D-02 0.467D-01 0.979D+00
 Coeff:     -0.890D-04 0.194D-03 0.806D-05-0.958D-03-0.372D-02-0.589D-02
 Coeff:     -0.187D-01 0.312D-02 0.467D-01 0.979D+00
 Gap=     0.103 Goal=   None    Shift=    0.000
 RMSDP=6.52D-07 MaxDP=3.86D-05 DE=-1.74D-08 OVMax= 4.73D-05

 Cycle  11  Pass 1  IDiag  1:
 E= -422.505425646829     Delta-E=       -0.000000000819 Rises=F Damp=F
 DIIS: error= 5.10D-07 at cycle  11 NSaved=  11.
 NSaved=11 IEnMin=11 EnMin= -422.505425646829     IErMin=11 ErrMin= 5.10D-07
 ErrMax= 5.10D-07  0.00D+00 EMaxC= 1.00D-01 BMatC= 1.47D-10 BMatP= 3.69D-10
 IDIUse=1 WtCom= 1.00D+00 WtEn= 0.00D+00
 Coeff-Com: -0.265D-04 0.557D-04 0.275D-04-0.662D-04-0.524D-03-0.146D-02
 Coeff-Com: -0.124D-01-0.394D-01-0.540D-01 0.483D+00 0.624D+00
 Coeff:     -0.265D-04 0.557D-04 0.275D-04-0.662D-04-0.524D-03-0.146D-02
 Coeff:     -0.124D-01-0.394D-01-0.540D-01 0.483D+00 0.624D+00
 Gap=     0.103 Goal=   None    Shift=    0.000
 RMSDP=1.75D-07 MaxDP=6.79D-06 DE=-8.19D-10 OVMax= 1.05D-05

 Cycle  12  Pass 1  IDiag  1:
 E= -422.505425646998     Delta-E=       -0.000000000169 Rises=F Damp=F
 DIIS: error= 1.55D-07 at cycle  12 NSaved=  12.
 NSaved=12 IEnMin=12 EnMin= -422.505425646998     IErMin=12 ErrMin= 1.55D-07
 ErrMax= 1.55D-07  0.00D+00 EMaxC= 1.00D-01 BMatC= 1.34D-11 BMatP= 1.47D-10
 IDIUse=1 WtCom= 1.00D+00 WtEn= 0.00D+00
 Coeff-Com: -0.328D-05 0.592D-05 0.118D-04 0.807D-04 0.144D-03 0.915D-04
 Coeff-Com: -0.304D-02-0.178D-01-0.309D-01 0.685D-01 0.265D+00 0.718D+00
 Coeff:     -0.328D-05 0.592D-05 0.118D-04 0.807D-04 0.144D-03 0.915D-04
 Coeff:     -0.304D-02-0.178D-01-0.309D-01 0.685D-01 0.265D+00 0.718D+00
 Gap=     0.103 Goal=   None    Shift=    0.000
 RMSDP=4.63D-08 MaxDP=3.00D-06 DE=-1.69D-10 OVMax= 3.38D-06

 Cycle  13  Pass 1  IDiag  1:
 E= -422.505425647028     Delta-E=       -0.000000000030 Rises=F Damp=F
 DIIS: error= 4.83D-08 at cycle  13 NSaved=  13.
 NSaved=13 IEnMin=13 EnMin= -422.505425647028     IErMin=13 ErrMin= 4.83D-08
 ErrMax= 4.83D-08  0.00D+00 EMaxC= 1.00D-01 BMatC= 8.89D-13 BMatP= 1.34D-11
 IDIUse=1 WtCom= 1.00D+00 WtEn= 0.00D+00
 Coeff-Com:  0.132D-05-0.307D-05 0.230D-05 0.453D-04 0.991D-04 0.176D-03
 Coeff-Com: -0.240D-03-0.394D-02-0.726D-02-0.442D-02 0.542D-01 0.249D+00
 Coeff-Com:  0.712D+00
 Coeff:      0.132D-05-0.307D-05 0.230D-05 0.453D-04 0.991D-04 0.176D-03
 Coeff:     -0.240D-03-0.394D-02-0.726D-02-0.442D-02 0.542D-01 0.249D+00
 Coeff:      0.712D+00
 Gap=     0.103 Goal=   None    Shift=    0.000
 RMSDP=1.55D-08 MaxDP=1.08D-06 DE=-3.00D-11 OVMax= 4.47D-07

 Cycle  14  Pass 1  IDiag  1:
 E= -422.505425647049     Delta-E=       -0.000000000021 Rises=F Damp=F
 DIIS: error= 1.62D-08 at cycle  14 NSaved=  14.
 NSaved=14 IEnMin=14 EnMin= -422.505425647049     IErMin=14 ErrMin= 1.62D-08
 ErrMax= 1.62D-08  0.00D+00 EMaxC= 1.00D-01 BMatC= 1.94D-13 BMatP= 8.89D-13
 IDIUse=1 WtCom= 1.00D+00 WtEn= 0.00D+00
 Coeff-Com:  0.985D-06-0.204D-05-0.523D-06 0.104D-04 0.184D-04 0.603D-04
 Coeff-Com:  0.315D-03 0.602D-03 0.121D-02-0.114D-01-0.137D-01 0.104D-01
 Coeff-Com:  0.358D+00 0.655D+00
 Coeff:      0.985D-06-0.204D-05-0.523D-06 0.104D-04 0.184D-04 0.603D-04
 Coeff:      0.315D-03 0.602D-03 0.121D-02-0.114D-01-0.137D-01 0.104D-01
 Coeff:      0.358D+00 0.655D+00
 Gap=     0.103 Goal=   None    Shift=    0.000
 RMSDP=5.39D-09 MaxDP=2.94D-07 DE=-2.10D-11 OVMax= 1.50D-07

 Error on total polarization charges =  0.01702
 SCF Done:  E(RN12SX) =  -422.505425647     A.U. after   14 cycles
            NFock= 14  Conv=0.54D-08     -V/T= 2.0058
 KE= 4.200565124440D+02 PE=-2.166392935834D+03 EE= 7.309822322350D+02
 Leave Link  502 at Tue Jun  8 07:55:56 2021, MaxMem=  3355443200 cpu:       971.8
 (Enter /usr/local/gqt/g09/l601.exe)
 Copying SCF densities to generalized density rwf, IOpCl= 0 IROHF=0.

 **********************************************************************

            Population analysis using the SCF density.

 **********************************************************************

 Orbital symmetries:
       Occupied  (A) (A) (A) (A) (A) (A) (A) (A) (A) (A) (A) (A)
                 (A) (A) (A) (A) (A) (A) (A) (A) (A) (A) (A) (A)
                 (A) (A) (A) (A) (A) (A) (A) (A) (A) (A) (A) (A)
                 (A) (A)
       Virtual   (A) (A) (A) (A) (A) (A) (A) (A) (A) (A) (A) (A)
                 (A) (A) (A) (A) (A) (A) (A) (A) (A) (A) (A) (A)
                 (A) (A) (A) (A) (A) (A) (A) (A) (A) (A) (A) (A)
                 (A) (A) (A) (A) (A) (A) (A) (A) (A) (A) (A) (A)
                 (A) (A) (A) (A) (A) (A) (A) (A) (A) (A) (A) (A)
                 (A) (A) (A) (A) (A) (A) (A) (A) (A) (A) (A) (A)
                 (A) (A) (A) (A) (A) (A) (A) (A) (A) (A) (A) (A)
                 (A) (A) (A) (A) (A) (A) (A) (A) (A) (A) (A) (A)
                 (A) (A) (A) (A) (A) (A) (A) (A) (A) (A) (A) (A)
                 (A) (A) (A) (A) (A) (A) (A) (A) (A) (A) (A) (A)
                 (A) (A) (A) (A) (A) (A) (A) (A) (A) (A) (A) (A)
                 (A) (A) (A) (A) (A) (A) (A) (A) (A) (A) (A) (A)
                 (A) (A) (A) (A) (A) (A) (A) (A) (A) (A) (A) (A)
                 (A) (A) (A) (A) (A) (A) (A) (A) (A) (A) (A) (A)
                 (A) (A) (A) (A) (A) (A) (A) (A) (A) (A) (A) (A)
                 (A) (A) (A) (A) (A) (A) (A) (A) (A) (A) (A) (A)
                 (A) (A) (A) (A) (A) (A) (A) (A) (A) (A) (A) (A)
                 (A) (A) (A) (A) (A) (A) (A) (A) (A) (A) (A) (A)
                 (A) (A) (A) (A) (A) (A) (A) (A) (A) (A) (A) (A)
                 (A) (A) (A) (A) (A) (A) (A) (A) (A) (A) (A) (A)
                 (A) (A) (A) (A) (A) (A) (A) (A) (A) (A) (A) (A)
                 (A) (A) (A) (A) (A) (A) (A) (A) (A) (A) (A) (A)
                 (A) (A)
 The electronic state is 1-A.
 Alpha  occ. eigenvalues --  -14.38814 -14.36595 -10.30078 -10.25823 -10.25360
 Alpha  occ. eigenvalues --  -10.24194 -10.23874 -10.22685 -10.21549 -10.21417
 Alpha  occ. eigenvalues --   -1.00323  -0.93097  -0.82198  -0.76761  -0.71152
 Alpha  occ. eigenvalues --   -0.68149  -0.64729  -0.61308  -0.57619  -0.52262
 Alpha  occ. eigenvalues --   -0.51328  -0.49333  -0.47240  -0.46233  -0.44880
 Alpha  occ. eigenvalues --   -0.42905  -0.39934  -0.39794  -0.38170  -0.36684
 Alpha  occ. eigenvalues --   -0.36293  -0.35556  -0.35129  -0.31128  -0.30283
 Alpha  occ. eigenvalues --   -0.27674  -0.25462  -0.19203
 Alpha virt. eigenvalues --   -0.08904  -0.00483   0.00657   0.00989   0.01389
 Alpha virt. eigenvalues --    0.02576   0.03145   0.03511   0.03867   0.04102
 Alpha virt. eigenvalues --    0.05898   0.06526   0.06933   0.07291   0.07882
 Alpha virt. eigenvalues --    0.08609   0.08766   0.09509   0.10473   0.11077
 Alpha virt. eigenvalues --    0.11260   0.11347   0.12746   0.13123   0.13734
 Alpha virt. eigenvalues --    0.14678   0.14801   0.15557   0.16119   0.16524
 Alpha virt. eigenvalues --    0.16662   0.17391   0.17664   0.17928   0.18744
 Alpha virt. eigenvalues --    0.18915   0.19370   0.19407   0.20024   0.21010
 Alpha virt. eigenvalues --    0.21808   0.22180   0.23473   0.23621   0.24109
 Alpha virt. eigenvalues --    0.24330   0.25332   0.25630   0.26062   0.26701
 Alpha virt. eigenvalues --    0.27974   0.28397   0.29149   0.29693   0.30780
 Alpha virt. eigenvalues --    0.31669   0.32235   0.32703   0.33554   0.33739
 Alpha virt. eigenvalues --    0.35690   0.36751   0.37779   0.39715   0.41046
 Alpha virt. eigenvalues --    0.42921   0.43638   0.44514   0.47843   0.48262
 Alpha virt. eigenvalues --    0.49683   0.50266   0.51746   0.53137   0.55704
 Alpha virt. eigenvalues --    0.56229   0.57197   0.58673   0.59646   0.60151
 Alpha virt. eigenvalues --    0.60821   0.63634   0.63963   0.64225   0.64711
 Alpha virt. eigenvalues --    0.65818   0.66838   0.68112   0.68413   0.69605
 Alpha virt. eigenvalues --    0.69954   0.70574   0.70662   0.71680   0.72335
 Alpha virt. eigenvalues --    0.73685   0.73980   0.74842   0.75319   0.76206
 Alpha virt. eigenvalues --    0.76969   0.78302   0.80284   0.84303   0.86031
 Alpha virt. eigenvalues --    0.88060   0.89121   0.92286   0.92845   0.94180
 Alpha virt. eigenvalues --    0.96219   0.99768   1.03152   1.03272   1.05698
 Alpha virt. eigenvalues --    1.06903   1.09833   1.13798   1.16393   1.21632
 Alpha virt. eigenvalues --    1.22096   1.24337   1.25327   1.26406   1.34243
 Alpha virt. eigenvalues --    1.37732   1.38360   1.41046   1.42475   1.43641
 Alpha virt. eigenvalues --    1.47548   1.48446   1.50296   1.51582   1.52749
 Alpha virt. eigenvalues --    1.54219   1.54717   1.56393   1.58779   1.59061
 Alpha virt. eigenvalues --    1.59550   1.60843   1.62195   1.63571   1.63995
 Alpha virt. eigenvalues --    1.64512   1.66041   1.67627   1.69398   1.70146
 Alpha virt. eigenvalues --    1.71742   1.73620   1.74159   1.75981   1.76408
 Alpha virt. eigenvalues --    1.78014   1.79445   1.80346   1.81483   1.83904
 Alpha virt. eigenvalues --    1.84384   1.85839   1.86854   1.88093   1.90251
 Alpha virt. eigenvalues --    1.91863   1.95392   1.95851   1.97114   1.99855
 Alpha virt. eigenvalues --    2.01012   2.03180   2.05111   2.06199   2.08720
 Alpha virt. eigenvalues --    2.11729   2.13538   2.15987   2.19645   2.19968
 Alpha virt. eigenvalues --    2.22768   2.26313   2.28634   2.30017   2.31275
 Alpha virt. eigenvalues --    2.34294   2.34729   2.37890   2.41259   2.43462
 Alpha virt. eigenvalues --    2.44469   2.46134   2.47761   2.49302   2.50804
 Alpha virt. eigenvalues --    2.52328   2.53276   2.55098   2.57306   2.60244
 Alpha virt. eigenvalues --    2.61900   2.62851   2.65659   2.66568   2.68192
 Alpha virt. eigenvalues --    2.68689   2.70504   2.72487   2.74851   2.75672
 Alpha virt. eigenvalues --    2.76833   2.79839   2.81875   2.83519   2.84786
 Alpha virt. eigenvalues --    2.87118   2.90314   2.92414   2.94283   2.95957
 Alpha virt. eigenvalues --    2.96290   3.00665   3.03018   3.04695   3.06166
 Alpha virt. eigenvalues --    3.08579   3.12370   3.21871   3.23184   3.28081
 Alpha virt. eigenvalues --    3.32915   3.41727   3.47653   3.51024   3.57348
 Alpha virt. eigenvalues --    3.60590   3.69233   3.71245   3.75241   3.77223
 Alpha virt. eigenvalues --    3.77429   3.78113   3.81638   3.83857   3.91696
 Alpha virt. eigenvalues --    4.05579   4.16196   4.18420   4.21589   4.31189
 Alpha virt. eigenvalues --    4.40035   4.44536   4.67490   4.86715   4.88764
 Alpha virt. eigenvalues --    4.94691  23.59269  23.74396  23.77091  23.78524
 Alpha virt. eigenvalues --   23.81092  23.82627  23.88360  23.95671  35.34681
 Alpha virt. eigenvalues --   35.47246
          Condensed to atoms (all electrons):
               1          2          3          4          5          6
     1  C    6.637544   0.176021  -0.736107  -0.034880   0.368984  -0.551093
     2  N    0.176021   7.159547  -0.360556  -0.081766   0.215289  -0.168679
     3  C   -0.736107  -0.360556   8.342961  -0.107078  -0.861166   0.725287
     4  N   -0.034880  -0.081766  -0.107078   7.380602  -0.224230   0.210882
     5  C    0.368984   0.215289  -0.861166  -0.224230   8.238361  -1.763762
     6  C   -0.551093  -0.168679   0.725287   0.210882  -1.763762   7.634380
     7  C    0.321129  -0.035334  -0.424929  -0.188717   0.403698  -0.545937
     8  C   -0.117094   0.053326  -0.006371   0.048854  -0.814975   0.643268
     9  C   -0.059400  -0.043852   0.037958  -0.008970   0.474629  -0.582517
    10  C   -0.320904   0.262846  -0.254870   0.017711  -0.026132   0.016694
    11  H    0.403610  -0.053743   0.002066  -0.005976   0.013189   0.007944
    12  H    0.458746  -0.098311   0.032319  -0.002732  -0.024433  -0.055466
    13  H   -0.001934  -0.004918   0.027925  -0.032481   0.438689  -0.084773
    14  H    0.004319  -0.010239   0.029796  -0.066762   0.460054  -0.088387
    15  H   -0.023757   0.001767  -0.004308   0.022125  -0.019710   0.405687
    16  H   -0.003754   0.000507   0.020718  -0.043616  -0.021290   0.009145
    17  H   -0.015844  -0.019897   0.061109  -0.094482  -0.027319   0.021259
    18  H    0.012516   0.002068  -0.012005   0.005595   0.039181  -0.014062
    19  H   -0.018427  -0.001131   0.019691  -0.009158  -0.095552   0.020753
    20  H    0.016770   0.002813  -0.000015  -0.007756   0.032806  -0.127100
    21  H   -0.021279   0.004500   0.010955   0.000495  -0.010620  -0.084108
    22  H    0.013631  -0.049064  -0.007552   0.000463  -0.002464   0.011600
    23  H   -0.004272  -0.052013   0.029961  -0.002758   0.002902  -0.008695
    24  H   -0.011580  -0.045272  -0.012515   0.003463  -0.002191  -0.005192
               7          8          9         10         11         12
     1  C    0.321129  -0.117094  -0.059400  -0.320904   0.403610   0.458746
     2  N   -0.035334   0.053326  -0.043852   0.262846  -0.053743  -0.098311
     3  C   -0.424929  -0.006371   0.037958  -0.254870   0.002066   0.032319
     4  N   -0.188717   0.048854  -0.008970   0.017711  -0.005976  -0.002732
     5  C    0.403698  -0.814975   0.474629  -0.026132   0.013189  -0.024433
     6  C   -0.545937   0.643268  -0.582517   0.016694   0.007944  -0.055466
     7  C    6.554140  -0.415271  -0.022422  -0.044128  -0.005536  -0.003713
     8  C   -0.415271   6.748114  -0.546206   0.013295   0.006195  -0.001265
     9  C   -0.022422  -0.546206   6.315076   0.014936  -0.012740   0.004182
    10  C   -0.044128   0.013295   0.014936   5.410547  -0.011415  -0.004591
    11  H   -0.005536   0.006195  -0.012740  -0.011415   0.483101  -0.035520
    12  H   -0.003713  -0.001265   0.004182  -0.004591  -0.035520   0.524414
    13  H   -0.024073  -0.036211   0.031850   0.000234  -0.000195  -0.000042
    14  H    0.001815   0.018207  -0.001472  -0.000857  -0.000363   0.005068
    15  H   -0.011230   0.010795  -0.028945  -0.004769  -0.004153  -0.001670
    16  H    0.421832  -0.082636   0.033161  -0.002311  -0.000063   0.000117
    17  H    0.450055  -0.014751  -0.036114   0.004732   0.000554  -0.000367
    18  H   -0.039764   0.412159  -0.038557   0.000245  -0.000133   0.000034
    19  H   -0.067348   0.553991  -0.074823   0.000457   0.000087  -0.000013
    20  H    0.032003  -0.090020   0.503688   0.000709   0.000504  -0.000017
    21  H   -0.024910  -0.043264   0.522678  -0.000317   0.000293   0.001107
    22  H   -0.001920  -0.000892  -0.002313   0.405871   0.000689  -0.000665
    23  H    0.002718  -0.001197   0.003395   0.389668   0.007286  -0.002089
    24  H   -0.005324   0.001870  -0.000875   0.435127  -0.003482   0.013713
              13         14         15         16         17         18
     1  C   -0.001934   0.004319  -0.023757  -0.003754  -0.015844   0.012516
     2  N   -0.004918  -0.010239   0.001767   0.000507  -0.019897   0.002068
     3  C    0.027925   0.029796  -0.004308   0.020718   0.061109  -0.012005
     4  N   -0.032481  -0.066762   0.022125  -0.043616  -0.094482   0.005595
     5  C    0.438689   0.460054  -0.019710  -0.021290  -0.027319   0.039181
     6  C   -0.084773  -0.088387   0.405687   0.009145   0.021259  -0.014062
     7  C   -0.024073   0.001815  -0.011230   0.421832   0.450055  -0.039764
     8  C   -0.036211   0.018207   0.010795  -0.082636  -0.014751   0.412159
     9  C    0.031850  -0.001472  -0.028945   0.033161  -0.036114  -0.038557
    10  C    0.000234  -0.000857  -0.004769  -0.002311   0.004732   0.000245
    11  H   -0.000195  -0.000363  -0.004153  -0.000063   0.000554  -0.000133
    12  H   -0.000042   0.005068  -0.001670   0.000117  -0.000367   0.000034
    13  H    0.499498  -0.012354  -0.000450   0.003617  -0.001202   0.000510
    14  H   -0.012354   0.470443  -0.001240   0.000027  -0.000160  -0.000045
    15  H   -0.000450  -0.001240   0.482143   0.000200  -0.000293  -0.000123
    16  H    0.003617   0.000027   0.000200   0.541590  -0.037518  -0.001620
    17  H   -0.001202  -0.000160  -0.000293  -0.037518   0.506631  -0.005187
    18  H    0.000510  -0.000045  -0.000123  -0.001620  -0.005187   0.498725
    19  H    0.002324   0.001003  -0.000260  -0.006183   0.006491  -0.025723
    20  H    0.000206  -0.000121  -0.008747  -0.000469   0.000499  -0.003048
    21  H   -0.000496   0.000032   0.002999  -0.000010   0.005399  -0.005188
    22  H    0.000001  -0.000007   0.000008  -0.000033   0.000090   0.000003
    23  H   -0.000003   0.000007  -0.000043  -0.000012   0.000763   0.000002
    24  H   -0.000009  -0.000017   0.000098   0.000051  -0.000569   0.000000
              19         20         21         22         23         24
     1  C   -0.018427   0.016770  -0.021279   0.013631  -0.004272  -0.011580
     2  N   -0.001131   0.002813   0.004500  -0.049064  -0.052013  -0.045272
     3  C    0.019691  -0.000015   0.010955  -0.007552   0.029961  -0.012515
     4  N   -0.009158  -0.007756   0.000495   0.000463  -0.002758   0.003463
     5  C   -0.095552   0.032806  -0.010620  -0.002464   0.002902  -0.002191
     6  C    0.020753  -0.127100  -0.084108   0.011600  -0.008695  -0.005192
     7  C   -0.067348   0.032003  -0.024910  -0.001920   0.002718  -0.005324
     8  C    0.553991  -0.090020  -0.043264  -0.000892  -0.001197   0.001870
     9  C   -0.074823   0.503688   0.522678  -0.002313   0.003395  -0.000875
    10  C    0.000457   0.000709  -0.000317   0.405871   0.389668   0.435127
    11  H    0.000087   0.000504   0.000293   0.000689   0.007286  -0.003482
    12  H   -0.000013  -0.000017   0.001107  -0.000665  -0.002089   0.013713
    13  H    0.002324   0.000206  -0.000496   0.000001  -0.000003  -0.000009
    14  H    0.001003  -0.000121   0.000032  -0.000007   0.000007  -0.000017
    15  H   -0.000260  -0.008747   0.002999   0.000008  -0.000043   0.000098
    16  H   -0.006183  -0.000469  -0.000010  -0.000033  -0.000012   0.000051
    17  H    0.006491   0.000499   0.005399   0.000090   0.000763  -0.000569
    18  H   -0.025723  -0.003048  -0.005188   0.000003   0.000002   0.000000
    19  H    0.512730  -0.005171   0.005468   0.000001   0.000002  -0.000006
    20  H   -0.005171   0.509668  -0.029284  -0.000002   0.000015   0.000007
    21  H    0.005468  -0.029284   0.483378   0.000065   0.000020  -0.000023
    22  H    0.000001  -0.000002   0.000065   0.504021  -0.017592  -0.028212
    23  H    0.000002   0.000015   0.000020  -0.017592   0.519502  -0.032303
    24  H   -0.000006   0.000007  -0.000023  -0.028212  -0.032303   0.522798
 Mulliken charges:
               1
     1  C   -0.492948
     2  N    0.146089
     3  C   -0.553274
     4  N    0.221172
     5  C   -0.793940
     6  C    0.372872
     7  C   -0.326834
     8  C   -0.339919
     9  C   -0.482347
    10  C   -0.302777
    11  H    0.207800
    12  H    0.191193
    13  H    0.194288
    14  H    0.191254
    15  H    0.183874
    16  H    0.168550
    17  H    0.196121
    18  H    0.174418
    19  H    0.180796
    20  H    0.172060
    21  H    0.182108
    22  H    0.174272
    23  H    0.164733
    24  H    0.170441
 Sum of Mulliken charges =   0.00000
 Mulliken charges with hydrogens summed into heavy atoms:
               1
     1  C   -0.093955
     2  N    0.146089
     3  C   -0.553274
     4  N    0.221172
     5  C   -0.408398
     6  C    0.556746
     7  C    0.037837
     8  C    0.015294
     9  C   -0.128179
    10  C    0.206668
 Electronic spatial extent (au):  <R**2>=           1232.2894
 Charge=              0.0000 electrons
 Dipole moment (field-independent basis, Debye):
    X=              1.2330    Y=              4.4362    Z=             -1.3396  Tot=              4.7952
 Quadrupole moment (field-independent basis, Debye-Ang):
   XX=            -59.8338   YY=            -67.7728   ZZ=            -62.6408
   XY=             -3.4034   XZ=              3.1464   YZ=              5.0101
 Traceless Quadrupole moment (field-independent basis, Debye-Ang):
   XX=              3.5820   YY=             -4.3570   ZZ=              0.7750
   XY=             -3.4034   XZ=              3.1464   YZ=              5.0101
 Octapole moment (field-independent basis, Debye-Ang**2):
  XXX=              3.9352  YYY=             22.9251  ZZZ=             -1.9937  XYY=              5.6737
  XXY=              9.4492  XXZ=             -5.5577  XZZ=              2.7301  YZZ=              6.9202
  YYZ=            -11.1801  XYZ=             -2.2600
 Hexadecapole moment (field-independent basis, Debye-Ang**3):
 XXXX=           -917.9427 YYYY=           -472.3439 ZZZZ=           -323.9795 XXXY=            -17.3185
 XXXZ=             27.7894 YYYX=            -16.9004 YYYZ=             23.4513 ZZZX=              6.3358
 ZZZY=              8.8351 XXYY=           -239.0948 XXZZ=           -208.2463 YYZZ=           -137.9000
 XXYZ=              9.8413 YYXZ=             11.6259 ZZXY=             -5.5414
 N-N= 5.928487655080D+02 E-N=-2.166392939968D+03  KE= 4.200565124440D+02
 No NMR shielding tensors so no spin-rotation constants.
 Leave Link  601 at Tue Jun  8 07:55:56 2021, MaxMem=  3355443200 cpu:         2.3
 (Enter /usr/local/gqt/g09/l701.exe)
 Compute integral first derivatives.
 ... and contract with generalized density number  0.
 D1PCM: PCM CHGder 1st derivatives, ID1Alg=3 FixD1E=F DoIter=F DoCFld=F I1PDM=0.
 GePol: Maximum number of non-zero 1st derivatives   =     189
 Leave Link  701 at Tue Jun  8 07:55:58 2021, MaxMem=  3355443200 cpu:        19.5
 (Enter /usr/local/gqt/g09/l702.exe)
 L702 exits ... SP integral derivatives will be done elsewhere.
 Leave Link  702 at Tue Jun  8 07:55:58 2021, MaxMem=  3355443200 cpu:         0.3
 (Enter /usr/local/gqt/g09/l703.exe)
 Compute integral first derivatives, UseDBF=F ICtDFT=           0.
 Integral derivatives from FoFJK, PRISM(SPDF).
 Calling FoFJK, ICntrl=      2127 FMM=F ISym2X=0 I1Cent= 0 IOpClX= 0 NMat=1 NMatS=1 NMatT=0.
 FoFJK:  IHMeth= 1 ICntrl=    2127 DoSepK=T KAlg= 0 I1Cent=   0 FoldK=F
 IRaf=         1 NMat=   1 IRICut=       1 DoRegI=T DoRafI=F ISym2E= 0.
 FoFCou: FMM=F IPFlag=           0 FMFlag=      100000 FMFlg1=         800
         NFxFlg=           0 DoJE=F BraDBF=F KetDBF=F FulRan=T
         wScrn=  0.000000 ICntrl=    2527 IOpCl=  0 I1Cent=           0 NGrid=           0
         NMat0=    1 NMatS0=      1 NMatT0=    0 NMatD0=    1 NMtDS0=    0 NMtDT0=    0
 Symmetry not used in FoFCou.
 Leave Link  703 at Tue Jun  8 07:56:30 2021, MaxMem=  3355443200 cpu:       515.8
 (Enter /usr/local/gqt/g09/l716.exe)
 Dipole        = 4.85100895D-01 1.74531586D+00-5.27028353D-01
 ***** Axes restored to original set *****
 -------------------------------------------------------------------
 Center     Atomic                   Forces (Hartrees/Bohr)
 Number     Number              X              Y              Z
 -------------------------------------------------------------------
      1        6          -0.006494225    0.048994787   -0.012966606
      2        7           0.002516495   -0.024963739    0.064550636
      3        6           0.000083971   -0.006994964   -0.022736804
      4        7          -0.024810908   -0.014522375    0.003090175
      5        6          -0.021097966    0.036203359    0.025553631
      6        6          -0.023231561    0.018795648   -0.008397390
      7        6           0.046130180   -0.012332662   -0.022254256
      8        6           0.035210516   -0.014574193   -0.029374753
      9        6           0.003290183    0.020312595   -0.016251685
     10        6          -0.016567914   -0.024733227   -0.007462706
     11        1           0.003495458   -0.001180159    0.014758480
     12        1           0.002238586   -0.000818813   -0.010987041
     13        1          -0.024362809   -0.007858488    0.014955275
     14        1           0.009779692   -0.002345894   -0.008970411
     15        1           0.002314987   -0.014030163    0.003494023
     16        1          -0.011848834    0.002972226   -0.003978830
     17        1           0.017998570    0.009901882    0.007636281
     18        1          -0.006877802    0.001810495    0.012063285
     19        1           0.005454306   -0.015922487   -0.021511156
     20        1          -0.001979724   -0.011692704    0.007318666
     21        1           0.005879560    0.007215857    0.012495635
     22        1          -0.008530777    0.015477710   -0.002849517
     23        1           0.006635757   -0.002954072    0.013607536
     24        1           0.004774258   -0.006760616   -0.011782466
 -------------------------------------------------------------------
 Cartesian Forces:  Max     0.064550636 RMS     0.017998520
 Leave Link  716 at Tue Jun  8 07:56:30 2021, MaxMem=  3355443200 cpu:         0.3
 (Enter /usr/local/gqt/g09/l103.exe)

 GradGradGradGradGradGradGradGradGradGradGradGradGradGradGradGradGradGrad
 Berny optimization.
 FormGI is forming the generalized inverse of G from B-inverse, IUseBI=4.
 Internal  Forces:  Max     0.060661011 RMS     0.011581798
 Search for a local minimum.
 Step number   1 out of a maximum of  144
 All quantities printed in internal units (Hartrees-Bohrs-Radians)
 RMS Force = .11582D-01 SwitMx=.10000D-02 MixMth= 1
 Mixed Optimization -- RFO/linear search
 Second derivative matrix not updated -- first step.
 ITU=  0
     Eigenvalues ---    0.00822   0.00976   0.01189   0.01515   0.01630
     Eigenvalues ---    0.02867   0.02946   0.03827   0.03936   0.04507
     Eigenvalues ---    0.04765   0.04927   0.04943   0.05263   0.05556
     Eigenvalues ---    0.05691   0.05882   0.06186   0.06441   0.06867
     Eigenvalues ---    0.07144   0.07654   0.07762   0.07771   0.07774
     Eigenvalues ---    0.08406   0.09064   0.09098   0.09143   0.09437
     Eigenvalues ---    0.09613   0.10121   0.11951   0.14720   0.16000
     Eigenvalues ---    0.16000   0.16000   0.16078   0.16792   0.17652
     Eigenvalues ---    0.19062   0.25740   0.28141   0.28660   0.28957
     Eigenvalues ---    0.31294   0.32284   0.32284   0.32284   0.32284
     Eigenvalues ---    0.32284   0.32284   0.32284   0.32284   0.32284
     Eigenvalues ---    0.32284   0.32285   0.32285   0.32285   0.32285
     Eigenvalues ---    0.35069   0.37618   0.37898   0.38469   0.39861
     Eigenvalues ---    0.40507
 RFO step:  Lambda=-7.40336083D-02 EMin= 8.22219389D-03
 Linear search not attempted -- first point.
 Maximum step size (   0.300) exceeded in Quadratic search.
    -- Step size scaled by   0.789
 Iteration  1 RMS(Cart)=  0.06890145 RMS(Int)=  0.00184223
 Iteration  2 RMS(Cart)=  0.00223514 RMS(Int)=  0.00095520
 Iteration  3 RMS(Cart)=  0.00000277 RMS(Int)=  0.00095520
 Iteration  4 RMS(Cart)=  0.00000000 RMS(Int)=  0.00095520
 ITry= 1 IFail=0 DXMaxC= 2.55D-01 DCOld= 1.00D+10 DXMaxT= 3.00D-01 DXLimC= 3.00D+00 Rises=F
 Variable       Old X    -DE/DX   Delta X   Delta X   Delta X     New X
                                 (Linear)    (Quad)   (Total)
    R1        2.69004   0.04064   0.00000   0.07097   0.07212   2.76216
    R2        2.87805  -0.00060   0.00000   0.00139   0.00072   2.87878
    R3        2.10327  -0.01488   0.00000  -0.02960  -0.02960   2.07367
    R4        2.10326  -0.00946   0.00000  -0.01881  -0.01881   2.08446
    R5        2.71743  -0.03133   0.00000  -0.05133  -0.05094   2.66648
    R6        2.71742   0.02284   0.00000   0.03815   0.03815   2.75557
    R7        2.71743   0.01047   0.00000   0.01613   0.01697   2.73439
    R8        2.71743   0.03228   0.00000   0.05222   0.05209   2.76951
    R9        2.71743   0.06066   0.00000   0.10434   0.10499   2.82242
   R10        2.87805   0.01012   0.00000   0.01527   0.01373   2.89179
   R11        2.10327  -0.02411   0.00000  -0.04795  -0.04795   2.05531
   R12        2.10326  -0.01330   0.00000  -0.02645  -0.02645   2.07682
   R13        2.87805   0.03926   0.00000   0.07973   0.07923   2.95728
   R14        2.10326  -0.01411   0.00000  -0.02806  -0.02806   2.07521
   R15        2.87805   0.00415   0.00000   0.00488   0.00419   2.88224
   R16        2.10326  -0.01264   0.00000  -0.02513  -0.02513   2.07813
   R17        2.10326  -0.01955   0.00000  -0.03888  -0.03888   2.06439
   R18        2.83022   0.01796   0.00000   0.03707   0.03772   2.86794
   R19        2.10327  -0.01339   0.00000  -0.02664  -0.02664   2.07663
   R20        2.10326  -0.02269   0.00000  -0.04513  -0.04513   2.05813
   R21        2.10326  -0.01394   0.00000  -0.02772  -0.02772   2.07555
   R22        2.10326  -0.01501   0.00000  -0.02985  -0.02985   2.07341
   R23        2.10327  -0.01767   0.00000  -0.03515  -0.03515   2.06812
   R24        2.10327  -0.01530   0.00000  -0.03043  -0.03043   2.07284
   R25        2.10326  -0.01322   0.00000  -0.02630  -0.02630   2.07696
    A1        1.91160   0.00871   0.00000   0.03500   0.03314   1.94474
    A2        1.91001  -0.00258   0.00000  -0.00504  -0.00528   1.90473
    A3        1.91020  -0.00199   0.00000  -0.00784  -0.00690   1.90330
    A4        1.91001   0.00056   0.00000   0.00478   0.00573   1.91574
    A5        1.91020  -0.00293   0.00000  -0.01046  -0.01064   1.89956
    A6        1.91179  -0.00177   0.00000  -0.01641  -0.01671   1.89508
    A7        1.85338   0.00269   0.00000   0.03073   0.02801   1.88138
    A8        1.89114   0.01063   0.00000   0.04443   0.04195   1.93309
    A9        1.87972   0.00713   0.00000   0.04450   0.04305   1.92277
   A10        1.93278   0.00816   0.00000   0.01805   0.01678   1.94956
   A11        1.87972  -0.00306   0.00000  -0.01507  -0.01795   1.86177
   A12        1.87972   0.01021   0.00000   0.05075   0.05002   1.92974
   A13        1.87972   0.00373   0.00000   0.05086   0.05119   1.93091
   A14        1.91061  -0.00898   0.00000  -0.02682  -0.02825   1.88236
   A15        1.91025  -0.00342   0.00000  -0.01347  -0.01202   1.89823
   A16        1.91077   0.00864   0.00000   0.03113   0.03084   1.94162
   A17        1.91025   0.00545   0.00000   0.01716   0.01646   1.92671
   A18        1.91078   0.00574   0.00000   0.02652   0.02776   1.93854
   A19        1.91114  -0.00744   0.00000  -0.03454  -0.03473   1.87640
   A20        1.91061  -0.00814   0.00000  -0.04057  -0.04248   1.86814
   A21        1.91061   0.00660   0.00000   0.02117   0.02206   1.93267
   A22        1.91066  -0.00408   0.00000  -0.02216  -0.02180   1.88886
   A23        1.91061   0.00195   0.00000   0.02307   0.02337   1.93398
   A24        1.91065   0.00170   0.00000   0.00342   0.00276   1.91342
   A25        1.91065   0.00198   0.00000   0.01507   0.01474   1.92539
   A26        1.91061   0.01187   0.00000   0.05323   0.05193   1.96254
   A27        1.91025   0.00551   0.00000   0.02384   0.02226   1.93251
   A28        1.91077  -0.00871   0.00000  -0.02987  -0.02812   1.88265
   A29        1.91025  -0.00308   0.00000   0.00025   0.00016   1.91041
   A30        1.91077  -0.00430   0.00000  -0.03031  -0.03103   1.87974
   A31        1.91114  -0.00128   0.00000  -0.01710  -0.01727   1.89386
   A32        1.88216  -0.01125   0.00000  -0.01837  -0.02104   1.86112
   A33        1.91733   0.00148   0.00000   0.01054   0.01170   1.92903
   A34        1.92733   0.00584   0.00000   0.00423   0.00378   1.93111
   A35        1.91733   0.01573   0.00000   0.05732   0.05726   1.97459
   A36        1.92733  -0.00487   0.00000  -0.02337  -0.02183   1.90550
   A37        1.89253  -0.00666   0.00000  -0.02925  -0.02927   1.86326
   A38        1.81207   0.02171   0.00000   0.08428   0.08403   1.89610
   A39        1.93452  -0.00258   0.00000   0.00492   0.00473   1.93925
   A40        1.96774  -0.01028   0.00000  -0.04812  -0.04777   1.91996
   A41        1.93452  -0.00465   0.00000  -0.01205  -0.01366   1.92086
   A42        1.96774  -0.00963   0.00000  -0.03864  -0.03756   1.93018
   A43        1.84956   0.00488   0.00000   0.00864   0.00810   1.85766
   A44        1.91114   0.00257   0.00000   0.00842   0.00831   1.91945
   A45        1.91012   0.00001   0.00000  -0.00097  -0.00100   1.90912
   A46        1.91047   0.00806   0.00000   0.02843   0.02829   1.93876
   A47        1.91012  -0.00300   0.00000  -0.01264  -0.01264   1.89748
   A48        1.91047  -0.00394   0.00000  -0.01127  -0.01148   1.89899
   A49        1.91148  -0.00370   0.00000  -0.01198  -0.01204   1.89945
    D1        1.08100  -0.01069   0.00000  -0.06753  -0.06915   1.01185
    D2        3.09617   0.00402   0.00000   0.02084   0.02034   3.11651
    D3       -3.10835  -0.00625   0.00000  -0.04336  -0.04461   3.13022
    D4       -1.09319   0.00846   0.00000   0.04500   0.04489  -1.04830
    D5       -1.01319  -0.01122   0.00000  -0.07133  -0.07219  -1.08538
    D6        1.00198   0.00350   0.00000   0.01703   0.01730   1.01928
    D7       -0.97495  -0.00107   0.00000  -0.00375  -0.00344  -0.97839
    D8        1.11939   0.00037   0.00000   0.01262   0.01202   1.13141
    D9       -3.06937   0.00434   0.00000   0.03047   0.02997  -3.03940
   D10       -3.06878  -0.00358   0.00000  -0.02191  -0.02156  -3.09034
   D11       -0.97444  -0.00214   0.00000  -0.00554  -0.00610  -0.98054
   D12        1.11998   0.00182   0.00000   0.01231   0.01185   1.13183
   D13        1.11924   0.00003   0.00000   0.00166   0.00180   1.12104
   D14       -3.06960   0.00147   0.00000   0.01803   0.01726  -3.05234
   D15       -0.97518   0.00544   0.00000   0.03588   0.03521  -0.93997
   D16       -1.21185   0.01585   0.00000   0.09204   0.09122  -1.12063
   D17        3.04845  -0.00115   0.00000   0.00431   0.00299   3.05143
   D18       -3.14159  -0.00683   0.00000  -0.04249  -0.04313   3.09846
   D19        1.04783  -0.00473   0.00000  -0.03157  -0.03211   1.01572
   D20       -1.04719  -0.00514   0.00000  -0.03370  -0.03421  -1.08140
   D21       -1.14367   0.00528   0.00000   0.03835   0.03882  -1.10485
   D22        3.04575   0.00738   0.00000   0.04926   0.04985   3.09560
   D23        0.95073   0.00697   0.00000   0.04713   0.04775   0.99848
   D24        1.18425   0.00682   0.00000   0.01240   0.01080   1.19505
   D25       -0.83864  -0.00118   0.00000  -0.06514  -0.06677  -0.90540
   D26       -1.01710  -0.01397   0.00000  -0.09943  -0.10006  -1.11716
   D27       -3.11078  -0.01306   0.00000  -0.09580  -0.09616   3.07625
   D28        1.07755  -0.00715   0.00000  -0.06430  -0.06477   1.01277
   D29        1.00579  -0.00171   0.00000  -0.02196  -0.02325   0.98255
   D30       -1.08789  -0.00080   0.00000  -0.01833  -0.01935  -1.10723
   D31        3.10044   0.00511   0.00000   0.01317   0.01204   3.11248
   D32        2.15251   0.00021   0.00000  -0.00307  -0.00493   2.14758
   D33       -2.03700   0.00706   0.00000   0.04436   0.04460  -1.99240
   D34        0.05787   0.00353   0.00000   0.01973   0.01961   0.07748
   D35        0.12962  -0.00333   0.00000  -0.03729  -0.04063   0.08899
   D36        2.22330   0.00352   0.00000   0.01014   0.00889   2.23219
   D37       -1.96502   0.00000   0.00000  -0.01448  -0.01610  -1.98112
   D38        0.93279   0.01602   0.00000   0.09325   0.09187   1.02466
   D39       -1.16155   0.01173   0.00000   0.07804   0.07725  -1.08431
   D40        3.02721   0.00708   0.00000   0.04336   0.04237   3.06958
   D41        3.02647   0.00968   0.00000   0.07085   0.06986   3.09633
   D42        0.93213   0.00539   0.00000   0.05564   0.05524   0.98736
   D43       -1.16229   0.00073   0.00000   0.02096   0.02036  -1.14193
   D44       -1.16185   0.00742   0.00000   0.05530   0.05468  -1.10717
   D45        3.02699   0.00313   0.00000   0.04009   0.04006   3.06705
   D46        0.93257  -0.00152   0.00000   0.00541   0.00518   0.93775
   D47       -2.02508   0.00523   0.00000   0.02334   0.02489  -2.00019
   D48        2.18016  -0.00045   0.00000  -0.01312  -0.01271   2.16745
   D49        0.11004   0.00193   0.00000   0.00440   0.00484   0.11488
   D50        0.06926   0.00050   0.00000   0.00074   0.00085   0.07011
   D51       -2.00869  -0.00518   0.00000  -0.03572  -0.03675  -2.04544
   D52        2.20438  -0.00281   0.00000  -0.01820  -0.01920   2.18518
   D53        2.16368   0.00498   0.00000   0.02828   0.02870   2.19239
   D54        0.08573  -0.00070   0.00000  -0.00817  -0.00889   0.07684
   D55       -1.98438   0.00168   0.00000   0.00935   0.00865  -1.97573
   D56       -1.23404   0.02268   0.00000   0.13304   0.13208  -1.10196
   D57        2.95988   0.00954   0.00000   0.06865   0.06853   3.02840
   D58        0.87326   0.01319   0.00000   0.09552   0.09501   0.96827
   D59        2.95547   0.01057   0.00000   0.07116   0.07017   3.02564
   D60        0.86620  -0.00257   0.00000   0.00676   0.00662   0.87282
   D61       -1.22042   0.00107   0.00000   0.03364   0.03311  -1.18731
   D62        0.86061   0.01665   0.00000   0.11050   0.10925   0.96985
   D63       -1.22867   0.00352   0.00000   0.04611   0.04570  -1.18297
   D64        2.96790   0.00716   0.00000   0.07299   0.07218   3.04008
   D65        1.03224  -0.00825   0.00000  -0.07125  -0.07245   0.95979
   D66        3.11019  -0.00115   0.00000  -0.02317  -0.02360   3.08659
[...]
 19021,-0.00105432,-0.00015796,-0.00264054,0.00356058,-0.00067515,-0.02
 922279,-0.01272684,-0.01059543,-0.00018151,-0.00181080,-0.00124071,0.0
 0009470,0.00037599,0.00030774,-0.17029300,-0.03501422,-0.12167651,0.00
 195098,-0.00109697,-0.00183651,0.00048846,0.00015403,0.00011005,-0.000
 07227,0.00065821,0.00017697,-0.00003116,0.00010957,-0.00010251,-0.0000
 4999,0.00010495,0.00002630,0.00029731,0.00058534,0.00023448,0.00009246
 ,0.00003463,-0.00000653,-0.00009480,0.00013497,-0.00025030,0.19676636,
 0.00007511,-0.00017088,-0.00001267,-0.00093499,0.00035387,-0.00012285,
 -0.00214847,-0.00006698,0.00032609,-0.00168574,0.00001992,0.00139165,0
 .00030662,-0.00008202,-0.00009637,-0.00060294,0.00044035,0.00031175,-0
 .03804949,-0.06394004,-0.04377402,0.01631370,0.00161713,0.01698644,-0.
 00043582,-0.00216628,0.00331561,0.00007605,0.00019425,-0.00006199,-0.0
 0002926,0.00001614,-0.00005774,-0.00000072,0.00007374,-0.00002693,-0.0
 0013762,-0.00013912,0.00000518,-0.00008203,0.00022811,0.00003994,-0.00
 010567,0.00005677,-0.00014794,0.04563233,0.06597710,-0.00000250,0.0002
 4924,0.00004096,0.00056933,0.00079504,0.00015939,0.00157726,-0.0009103
 1,0.00039383,0.01642745,0.00467161,0.01391670,-0.00044493,0.00107225,0
 .00002815,0.00008308,-0.00029560,0.00017589,-0.12713126,-0.04338983,-0
 .17552717,-0.01595479,-0.00405682,-0.01433395,0.00227763,0.00237532,-0
 .00260127,0.00023119,-0.00006271,0.00006647,0.00003398,0.00001253,-0.0
 0002555,-0.00008337,-0.00005856,0.00003156,-0.00051346,0.00020768,-0.0
 0000597,0.00011268,0.00029332,0.00018946,-0.00006767,0.00001020,0.0001
 0568,0.13166944,0.03955223,0.18446190,0.00028380,0.00006936,0.00016227
 ,-0.00040863,-0.00061693,0.00038712,0.00275407,0.00296831,-0.00056626,
 -0.01262138,0.03148261,0.01378166,-0.00442757,-0.00207904,0.00380620,0
 .00033856,-0.00030426,0.00032662,-0.05595967,0.03411228,0.01194794,-0.
 00061815,-0.00086605,0.00104773,-0.00002100,-0.00005039,0.00002003,0.0
 0004123,-0.00001123,0.00009594,-0.00001968,-0.00010623,-0.00001570,0.0
 0003225,-0.00000959,-0.00002985,0.00012573,0.00010976,0.00002565,-0.00
 074631,0.00161370,0.00009367,0.00001096,0.00002754,-0.00007632,0.00571
 799,-0.01976501,-0.00804836,0.06414366,-0.00016226,0.00002342,-0.00015
 879,0.00036688,0.00044399,-0.00022741,-0.00404353,-0.00059678,0.000239
 55,0.00286505,0.00038268,0.00016611,0.00024248,0.00072822,-0.00028042,
 -0.00011336,0.00003469,-0.00011435,0.04375672,-0.27637836,-0.09842637,
 0.00092843,-0.01813102,-0.00695921,-0.00036388,-0.00032024,0.00014925,
 -0.00007509,-0.00009371,0.00009566,0.00002845,0.00004521,0.00003741,0.
 00003072,-0.00001842,-0.00004817,-0.00011211,0.00035296,0.00015647,0.0
 0014479,-0.00006980,0.00021874,0.00000530,-0.00006294,0.00005534,0.000
 50821,-0.00341557,-0.00126570,-0.04535242,0.29704882,-0.00018959,-0.00
 002744,-0.00005301,0.00022497,0.00059807,-0.00021105,-0.00252819,-0.00
 145795,0.00038613,0.00668188,-0.01580186,-0.00683035,0.00233828,0.0011
 0424,-0.00076077,0.00031165,-0.00021210,-0.00022635,0.01502536,-0.0950
 2018,-0.08866555,-0.00285505,0.02281807,0.00763814,0.00081255,0.000499
 40,0.00013723,0.00003272,-0.00003074,-0.00005570,0.00003584,0.00008316
 ,0.00003175,-0.00002726,-0.00001238,0.00001755,0.00002052,0.00042710,0
 .00010320,0.00052291,-0.00064057,0.00000640,0.00009243,-0.00005543,0.0
 0010893,0.00409771,-0.01861671,-0.00758177,-0.02345640,0.10350865,0.09
 659470,-0.00047695,0.00083671,0.00102732,-0.00023562,0.00003570,-0.000
 00311,0.00025977,0.00021723,0.00009839,0.00007194,-0.00082554,0.000615
 80,-0.00004877,-0.00011060,-0.00139426,-0.00391172,0.00039340,-0.00337
 938,-0.00000444,-0.00004153,-0.00097898,-0.12964585,0.04541084,0.11659
 791,-0.01765893,0.00976949,0.02397220,0.00012605,0.00001864,0.00007425
 ,-0.00000774,-0.00003653,-0.00006865,-0.00040951,-0.00037997,0.0000725
 2,0.00016641,0.00009405,0.00004751,0.00002727,-0.00003184,0.00013743,-
 0.00057221,0.00022732,0.00050109,-0.00061072,-0.00013878,0.00013110,0.
 00089516,-0.00023039,-0.00025971,0.14181012,0.00019494,-0.00058583,-0.
 00030670,-0.00107922,0.00033591,-0.00034903,0.00175373,0.00112069,0.00
 131563,-0.00305267,-0.00439843,0.00355815,0.00036851,-0.00074771,-0.00
 025011,0.00056669,0.00084865,0.00089198,-0.01298212,0.00497707,0.01772
 448,0.04696515,-0.07087141,-0.06565585,0.00199400,-0.00251155,-0.00453
 413,0.00005782,0.00018797,-0.00005073,-0.00004991,0.00006327,0.0000263
 7,0.00016441,0.00021968,0.00001387,0.00023176,0.00016505,0.00028464,0.
 00011794,0.00020691,0.00000088,0.00000484,-0.00012690,-0.00002483,0.00
 071489,-0.00011040,0.00069061,-0.00063435,0.00164701,-0.00014984,-0.05
 080458,0.07777745,-0.00031298,0.00053769,0.00031233,0.00131194,-0.0002
 8562,0.00023276,-0.00203057,-0.00120912,-0.00126829,0.00253868,0.00342
 260,-0.00220769,-0.00054494,0.00046652,-0.00026712,-0.00256480,0.00066
 674,-0.00056065,0.01031429,-0.00703012,-0.01434416,0.11878997,-0.06516
 709,-0.21061758,-0.00821267,0.00417902,0.00971333,-0.00012240,-0.00026
 029,0.00004997,0.00006808,-0.00003304,0.00001142,-0.00017078,-0.000207
 65,-0.00000753,0.00016862,0.00020128,0.00019707,0.00012222,0.00004713,
 0.00005061,-0.00019654,0.00012120,0.00024316,-0.00056435,0.00080895,-0
 .00090295,0.00019628,-0.00032448,0.00170552,-0.12674399,0.06763054,0.2
 2556094,0.00011542,-0.00013225,0.00006862,-0.00012775,0.00009701,0.000
 09396,0.00017814,0.00022429,-0.00001376,-0.00013716,-0.00016219,0.0006
 7804,-0.00027636,-0.00046710,0.00018201,0.00119335,-0.00054926,-0.0006
 7308,-0.00057425,0.00291856,-0.00134416,-0.08950073,-0.09118916,-0.034
 39220,-0.01540189,-0.02644752,-0.01349729,0.00005614,0.00005626,0.0000
 2360,0.00017647,0.00002367,0.00002834,-0.00003931,0.00000278,0.0001442
 4,-0.00017666,-0.00004998,0.00128136,0.00017251,0.00020659,0.00004126,
 -0.00011908,0.00010300,0.00005335,0.00096444,0.00063104,0.00026964,0.0
 0054117,0.00082632,-0.00057945,0.00788335,0.01583795,0.00637730,0.0991
 3599,-0.00002792,-0.00009931,0.00010085,-0.00066798,0.00017060,0.00000
 169,0.00077567,0.00038829,0.00065140,-0.00041873,-0.00104565,0.0009721
 3,-0.00032402,-0.00068279,-0.00118229,-0.00050353,0.00047250,-0.000394
 38,-0.00563158,-0.02011584,-0.00763715,-0.09023128,-0.23844110,-0.0792
 4166,0.00315232,0.00647838,0.00317204,0.00008729,0.00013654,0.00003931
 ,-0.00001022,0.00006337,-0.00006161,-0.00007360,-0.00001914,-0.0000224
 5,0.00059210,0.00040701,0.00010568,0.00018977,0.00025739,0.00015453,-0
 .00027110,-0.00003742,0.00012778,0.00002219,0.00139873,-0.00002814,-0.
 00043657,-0.00174055,0.00342552,-0.00381742,-0.00870369,-0.00356490,0.
 09629392,0.25907313,0.00003453,0.00019454,0.00002887,0.00042391,-0.000
 33619,0.00000256,-0.00047458,0.00003849,-0.00049553,-0.00010053,0.0012
 4877,-0.00055961,0.00050477,0.00035163,-0.00037143,0.00031671,0.000150
 46,-0.00001278,0.00866769,0.02245260,0.00628295,-0.03563757,-0.0806851
 5,-0.07990233,-0.00530027,-0.00881335,-0.00525759,-0.00000587,-0.00006
 026,-0.00001702,0.00002492,-0.00005061,0.00008875,-0.00003949,-0.00002
 807,0.00007938,0.00108200,0.00008370,-0.00097757,0.00002391,-0.0000142
 9,0.00009637,-0.00010457,-0.00000940,0.00016674,0.00041112,-0.00024662
 ,0.00169070,0.00051782,0.00280171,-0.00208905,-0.01070558,-0.02122362,
 -0.00912595,0.04267826,0.08315537,0.08989969,0.00000668,0.00044661,0.0
 0119874,0.00010950,0.00007125,0.00032190,-0.00057563,-0.00008111,-0.00
 041246,-0.00004811,0.00005887,0.00106831,-0.00171035,0.00010542,0.0011
 1404,-0.00147346,-0.01370706,0.01298574,-0.00634265,0.00010872,-0.0012
 7662,-0.00053139,0.02507697,-0.02186421,-0.04515498,-0.00655407,0.0044
 0986,0.00011303,0.00001032,0.00000928,-0.00009750,-0.00004231,-0.00017
 269,-0.00050837,-0.00008127,0.00005193,0.00006640,0.00005675,0.0000250
 6,0.00026606,-0.00018902,0.00060881,0.00112008,-0.00023307,-0.00012409
 ,-0.00006129,0.00103650,-0.00125402,-0.00002768,0.00030903,-0.00024240
 ,0.00092373,-0.00005398,0.00068795,0.00172353,-0.00058405,0.00025193,0
 .05259185,-0.00019524,-0.00033386,-0.00048193,-0.00017943,0.00000037,0
 .00043390,-0.00007991,0.00029845,-0.00009705,0.00053160,-0.00026126,0.
 00037716,0.00100057,-0.00026970,-0.00167768,0.00220640,0.00581396,-0.0
 0936300,0.00052284,0.00138495,-0.00001102,-0.00110936,-0.00366886,0.00
 186322,-0.00574588,-0.19849345,0.13766362,0.00012455,0.00021078,0.0001
 3144,0.00001147,-0.00002011,0.00009548,-0.00006315,-0.00006673,0.00011
 050,0.00004086,-0.00004320,0.00006896,-0.00020411,0.00011723,-0.000444
 29,-0.00015968,0.00166812,-0.00021605,-0.00006254,-0.00023690,0.000308
 14,-0.00004048,0.00003538,-0.00013832,0.00024575,-0.00014919,-0.000150
 62,0.00025136,0.00103074,-0.00005772,0.00300284,0.21278602,-0.00005882
 ,-0.00093972,-0.00166708,0.00009486,-0.00038233,0.00055766,-0.00054169
 ,-0.00029479,-0.00011989,-0.00000036,-0.00044169,0.00025680,0.00269503
 ,-0.00037414,-0.00194236,0.00101209,0.01604092,-0.01576927,-0.00151329
 ,-0.00006529,0.00024419,-0.00002360,0.00748515,-0.00690916,0.00394876,
 0.13559840,-0.16712213,-0.00000170,0.00003984,-0.00000896,0.00010566,0
 .00008712,0.00015675,0.00047888,0.00017343,-0.00003941,-0.00008774,-0.
 00002247,0.00004034,-0.00034307,0.00038101,-0.00105825,-0.00042505,-0.
 00003687,0.00146688,-0.00000311,0.00037946,-0.00031189,-0.00010306,0.0
 0016705,-0.00018690,-0.00017061,-0.00006525,0.00041169,0.00047523,-0.0
 0021869,0.00012221,-0.00572358,-0.14606191,0.18117143,0.00087955,0.000
 75804,0.00157591,-0.00042012,0.00004121,0.00016061,0.00086174,-0.00019
 028,0.00022695,0.00034801,-0.00024043,-0.00065279,-0.00145903,0.000974
 25,0.00076048,0.00375034,0.01707558,0.01130479,0.00060011,-0.00057631,
 0.00070579,-0.01527220,-0.02656993,-0.01465247,-0.07564378,-0.07526189
 ,-0.04400090,-0.00008727,-0.00006522,0.00002030,0.00004021,0.00021009,
 -0.00048158,0.00008648,0.00009134,-0.00023631,-0.00001089,0.00006827,0
 .00012825,0.00037792,-0.00015350,0.00034479,-0.00150494,0.00080064,0.0
 0245075,0.00006152,0.00009322,0.00009767,0.00002231,0.00032673,-0.0001
 2494,0.00146963,-0.00021369,0.00073533,-0.00576715,0.00196785,-0.00257
 929,-0.00036548,-0.00001194,0.00014932,0.09195387,-0.00143747,0.000475
 40,0.00032521,-0.00015216,0.00043784,0.00080730,-0.00037703,-0.0001680
 0,0.00029264,0.00047811,-0.00044710,0.00066996,-0.00001739,0.00004106,
 0.00011250,-0.00017639,-0.00659671,-0.00211084,-0.00072272,0.00066859,
 0.00022605,0.00262941,0.00610083,0.00345972,-0.07491317,-0.22247246,-0
 .10072812,0.00002734,0.00011337,-0.00015947,0.00072619,0.00007519,-0.0
 0003868,0.00008477,0.00005887,0.00025753,-0.00008679,0.00004867,-0.000
 03712,0.00010091,0.00004679,-0.00007894,0.00083630,0.00024998,-0.00159
 839,-0.00000870,-0.00001743,-0.00020996,-0.00001004,0.00005859,-0.0003
 3570,-0.00078721,0.00074358,0.00003654,0.00153942,0.00105125,0.0010516
 8,-0.00870111,-0.01976140,-0.01149019,0.08085569,0.23924983,-0.0010667
 1,-0.00111285,0.00090147,0.00073755,0.00005700,0.00034528,-0.00144169,
 0.00019927,-0.00100023,0.00090963,0.00105535,0.00052489,0.00247012,-0.
 00200691,-0.00125154,-0.00600131,-0.01892629,-0.01314222,-0.00033132,-
 0.00051793,-0.00002721,-0.00496240,-0.00868336,-0.00524659,-0.04248037
 ,-0.09924948,-0.10465074,0.00012540,0.00032803,0.00016724,0.00071398,0
 .00034607,0.00035780,-0.00030645,-0.00011308,0.00041875,-0.00002693,0.
 00000960,0.00018884,-0.00036568,0.00044273,-0.00071822,0.00104984,-0.0
 0037578,-0.00240124,0.00010396,0.00007154,0.00003239,-0.00010240,0.000
 15487,-0.00009961,0.00047096,0.00052729,0.00074839,-0.00187371,0.00050
 452,0.00032053,0.00838434,0.01772348,0.01071176,0.04408395,0.10960337,
 0.11388720,-0.00377083,-0.00113243,-0.00103177,0.00577868,-0.02893413,
 0.00564492,0.00167408,-0.00171386,-0.00078680,-0.00019856,0.00026117,0
 .00000806,0.00023231,-0.00000022,0.00021138,0.00031332,-0.00133352,0.0
 0009890,0.00006302,-0.00003377,0.00020882,-0.00002365,0.00000638,0.000
 05259,0.00005980,-0.00002795,-0.00007945,-0.07893216,0.09480343,-0.019
 64739,-0.00009698,0.00006756,0.00012869,0.00001299,-0.00015154,-0.0000
 9360,-0.00005493,0.00008094,0.00001821,0.00000291,0.00000423,0.0000009
 5,-0.00032036,-0.00018678,-0.00005741,0.00004952,0.00003939,-0.0000116
 9,-0.00005752,0.00002063,0.00001601,-0.00001509,0.00000488,-0.00000610
 ,-0.00000122,0.00000403,-0.00000939,-0.00001373,0.00000233,0.00000963,
 0.00001822,0.00001790,0.00001231,0.08367842,-0.00442254,-0.00048270,-0
 .00188457,0.00338464,-0.02603603,0.00405030,0.00632100,0.00127346,0.00
 121307,-0.00079043,0.00072169,-0.00019318,0.00032777,0.00032812,0.0003
 2739,0.00098755,-0.00108552,0.00022892,0.00007152,-0.00007451,0.000074
 14,-0.00004659,0.00001977,0.00009826,0.00005825,-0.00002312,-0.0001182
 9,0.08219757,-0.28884680,0.04884209,-0.00005906,0.00035416,-0.00006805
 ,0.00020609,-0.00001142,-0.00012678,-0.00009514,0.00009096,-0.00005337
 ,0.00003605,0.00004244,0.00000559,-0.00047580,-0.00029631,0.00002488,-
 0.00002701,0.00000342,-0.00000133,-0.00006028,-0.00000868,0.00000835,-
 0.00004209,0.00000209,0.00001010,-0.00000784,-0.00000491,-0.00001301,-
 0.00003132,-0.00000883,0.00002515,0.00001735,0.00003303,0.00000784,-0.
 08902622,0.31684449,-0.00138699,0.00038941,-0.00022565,0.00198417,-0.0
 0938954,0.00059413,0.00022310,-0.00037365,-0.00024036,0.00003664,-0.00
 012964,-0.00019672,0.00012598,0.00002429,0.00014307,0.00000859,-0.0004
 4952,0.00047983,0.00006928,0.00001423,0.00002051,-0.00000600,0.0000120
 7,0.00002281,-0.00002823,-0.00004260,-0.00002050,-0.01837295,0.0530501
 3,-0.05962496,0.00030178,-0.00017783,0.00054099,-0.00006398,0.00034114
 ,0.00006873,-0.00000231,-0.00002157,0.00002319,0.00000973,0.00000624,-
 0.00000847,-0.00008699,-0.00007570,0.00001674,-0.00000040,0.00000697,-
 0.00000523,-0.00001341,0.00000926,0.00001089,-0.00000718,-0.00000045,0
 .00000131,0.00000141,-0.00000284,-0.00000264,-0.00000784,0.00000733,0.
 00001085,0.00000475,0.00000668,0.00000464,0.02156528,-0.05346217,0.057
 78811,-0.00021086,0.00229271,-0.00076214,-0.01590584,-0.00234445,-0.02
 883965,0.00293859,-0.00179127,-0.00240133,-0.00314494,-0.00113827,0.00
 063730,-0.00001015,0.00043391,0.00017521,-0.00000264,0.00002038,0.0000
 8886,0.00040152,-0.00061824,0.00000557,-0.00021501,0.00013766,0.000055
 72,-0.00000662,-0.00004369,-0.00004063,-0.06009207,0.00625144,-0.05397
 185,0.00041748,-0.00025395,0.00057282,0.00009563,-0.00023640,0.0002432
 5,-0.00003265,-0.00004506,0.00003406,0.00010159,0.00004021,0.00003116,
 0.00001878,-0.00004967,0.00009372,-0.00012648,-0.00005226,0.00001561,0
 .00001515,0.00005441,0.00001071,-0.00001298,-0.00005813,0.00008235,-0.
 00000021,-0.00003768,0.00001339,-0.00000333,-0.00001181,0.00002267,0.0
 0004672,0.00008185,0.00000734,-0.00198336,0.00012129,-0.00958988,0.070
 70364,-0.00083473,0.00165120,-0.00268602,-0.01237086,-0.00107854,-0.02
 255558,0.00313503,-0.00087570,-0.00137952,-0.00181355,-0.00009524,0.00
 018828,0.00005792,0.00010369,0.00018394,-0.00039405,0.00000021,-0.0001
 8600,0.00024709,-0.00040157,0.00010218,-0.00015792,0.00008268,0.000011
 17,0.00002271,-0.00006063,0.00000311,0.00789148,-0.05375635,0.02854920
 ,0.00028959,-0.00014520,0.00064877,0.00012324,-0.00011580,0.00037422,-
 0.00003422,-0.00001433,0.00004294,0.00004591,0.00001975,0.00000957,0.0
 0006529,0.00001081,0.00007540,-0.00006254,-0.00002519,0.00001526,0.000
 00128,0.00001998,-0.00000103,0.00000410,-0.00004498,0.00005171,0.00000
 286,-0.00002276,0.00000913,-0.00001183,-0.00000241,0.00001322,-0.00000
 086,0.00002689,0.00000551,0.00464819,0.00063860,0.02832371,0.00011377,
 0.05315684,0.00014302,0.00128732,0.00035766,-0.00929907,-0.00162982,-0
 .00223925,0.00324985,-0.00023167,-0.00098467,-0.00236389,-0.00147474,-
 0.00071698,0.00002981,0.00063543,0.00021555,0.00024322,-0.00022749,0.0
 0058366,0.00069055,-0.00044575,0.00013583,-0.00020356,0.00012324,0.000
 05377,0.00000616,-0.00005567,0.00002370,-0.05742146,0.02491284,-0.2947
 1246,0.00009931,-0.00086301,0.00029055,0.00013549,-0.00014542,-0.00027
 334,0.00003228,-0.00011218,0.00003401,0.00006946,0.00001360,-0.0000039
 4,-0.00000514,-0.00006070,0.00008018,-0.00010604,-0.00003834,-0.000010
 32,0.00000337,0.00004500,0.00001141,-0.00002529,-0.00005612,0.00006878
 ,-0.00001682,-0.00005042,0.00002835,-0.00002407,-0.00006322,-0.0000120
 7,-0.00001395,-0.00004069,-0.00004465,0.00037894,-0.00007753,-0.003323
 35,0.06843809,-0.02447979,0.31804189,0.00019539,0.00133370,-0.00031167
 ,-0.02989942,0.00166094,0.00849819,0.00201656,-0.00383514,0.00347348,-
 0.00239370,-0.00098105,-0.00277425,-0.00027870,0.00056210,0.00030134,0
 .00012688,-0.00028175,-0.00018440,0.00076160,-0.00026326,-0.00010490,-
 0.00010990,0.00014395,0.00002601,0.00008890,-0.00000130,-0.00003049,-0
 .21280680,0.04379254,0.11937943,0.00004051,-0.00019156,0.00006572,0.00
 011126,-0.00078007,0.00008631,-0.00001903,-0.00014448,-0.00002176,0.00
 007753,-0.00004512,-0.00004028,0.00000724,-0.00008739,0.00007900,-0.00
 022600,-0.00003518,0.00001598,-0.00001447,0.00003890,0.00003946,-0.000
 02289,-0.00004886,0.00007710,-0.00001872,-0.00004945,0.00000616,-0.000
 00691,-0.00007706,0.00000357,0.00001424,0.00001230,-0.00011039,-0.0064
 1489,0.00135523,0.00523546,0.00700806,-0.00096789,-0.00404030,0.241763
 26,-0.00052382,0.00178777,0.00061298,-0.02762687,0.00262440,0.01132414
 ,0.00269132,-0.00217691,0.00193227,-0.00217581,-0.00047381,-0.00193119
 ,0.00001226,0.00058626,0.00042023,0.00009294,0.00001628,-0.00004606,0.
 00036811,-0.00010951,-0.00008001,-0.00009451,0.00008825,0.00001257,0.0
 0009245,-0.00003204,0.00005668,0.04823434,-0.06166055,-0.03260665,0.00
 000643,-0.00017377,0.00001002,0.00044992,0.00000555,-0.00036805,-0.000
 00781,-0.00000661,0.00002888,0.00004215,-0.00002005,-0.00002039,0.0000
 3127,-0.00000565,-0.00001247,-0.00012707,-0.00000871,0.00002553,-0.000
 04198,0.00001513,0.00002769,-0.00000676,-0.00004526,0.00005293,-0.0000
 0975,-0.00001475,0.00000021,-0.00001308,-0.00003008,0.00000260,0.00000
 378,-0.00001664,-0.00005081,0.02257937,-0.00347338,-0.01806597,-0.0028
 6676,0.00092807,0.00303513,-0.04111010,0.06219604,0.00001063,0.0005445
 1,0.00033214,-0.01069077,0.00275399,0.00910680,-0.00118668,-0.00088984
 ,0.00069544,-0.00031428,-0.00011084,-0.00092348,-0.00002355,0.00012610
 ,-0.00000028,-0.00002044,0.00019280,0.00007035,0.00008009,0.00006919,-
 0.00008143,0.00001811,0.00000126,-0.00001051,0.00000438,-0.00002547,0.
 00002787,0.12308674,-0.03192126,-0.13616292,0.00004863,-0.00026044,-0.
 00031269,0.00026786,0.00021910,-0.00018410,0.00002438,-0.00002202,-0.0
 0001300,-0.00003339,-0.00004936,-0.00000266,0.00002753,0.00000912,-0.0
 0002474,-0.00003728,0.00000636,0.00001300,-0.00000052,-0.00000019,0.00
 000826,-0.00000973,0.00000221,-0.00000537,-0.00000615,-0.00000626,0.00
 000439,-0.00001591,-0.00002043,-0.00000320,-0.00000741,-0.00002107,-0.
 00002691,-0.00663112,0.00108222,0.00392207,0.02507765,-0.00731939,-0.0
 1760430,-0.12966876,0.03563973,0.14117527\\0.00002112,-0.00002169,-0.0
 0001569,-0.00000890,0.00003577,0.00001375,-0.00002961,0.00000644,0.000
 00748,-0.00003650,-0.00001597,0.00001915,-0.00001350,0.00007986,0.0000
 1852,0.00000075,-0.00000834,-0.00000197,0.00004719,0.00003773,-0.00003
 678,-0.00000490,-0.00006270,0.00004504,0.00002890,-0.00001408,-0.00002
 475,-0.00001958,0.00000784,0.00000370,0.00000462,0.00000175,-0.0000334
 1,-0.00001666,0.00001243,-0.00004115,-0.00000048,0.00000110,-0.0000062
 9,-0.00001209,0.00001899,-0.00002114,0.00001342,-0.00000558,-0.0000291
 8,-0.00001732,-0.00000364,0.00003149,-0.00000526,-0.00001278,0.0000486
 7,0.00001725,-0.00002411,0.00001979,0.00001555,-0.00001559,-0.00000380
 ,0.00002934,-0.00002936,-0.00001069,0.00000951,-0.00001977,0.00000627,
 -0.00001868,0.00001077,0.00001698,0.00000410,-0.00000232,0.00000358,-0
 .00000828,0.00002325,-0.00000956\\\@


 YOU CANNOT THROW TO THE GROUND THE LETTERS OF
 THE GREEK ALPHABET AND PICK UP THE ILIAD.
        - RUFUS CHOATE, 1799-1859
 Job cpu time:       0 days  3 hours 30 minutes  3.5 seconds.
 File lengths (MBytes):  RWF=    247 Int=      0 D2E=      0 Chk=     14 Scr=      1
 Normal termination of Gaussian 09 at Tue Jun  8 08:35:51 2021.
