 Entering Gaussian System, Link 0=g09
 Input=NHC13.gjf
 Output=NHC13.log
 Initial command:
 /usr/local/gqt/g09/l1.exe "/usr/local/gqt/lixogaussian/Gau-14921.inp" -scrdir="/usr/local/gqt/lixogaussian/"
 Entering Link 1 = /usr/local/gqt/g09/l1.exe PID=     14923.
  
 Copyright (c) 1988,1990,1992,1993,1995,1998,2003,2009,2013,
            Gaussian, Inc.  All Rights Reserved.
  
 This is part of the Gaussian(R) 09 program.  It is based on
 the Gaussian(R) 03 system (copyright 2003, Gaussian, Inc.),
 the Gaussian(R) 98 system (copyright 1998, Gaussian, Inc.),
 the Gaussian(R) 94 system (copyright 1995, Gaussian, Inc.),
 the Gaussian 92(TM) system (copyright 1992, Gaussian, Inc.),
 the Gaussian 90(TM) system (copyright 1990, Gaussian, Inc.),
 the Gaussian 88(TM) system (copyright 1988, Gaussian, Inc.),
 the Gaussian 86(TM) system (copyright 1986, Carnegie Mellon
 University), and the Gaussian 82(TM) system (copyright 1983,
 Carnegie Mellon University). Gaussian is a federally registered
 trademark of Gaussian, Inc.
  
 This software contains proprietary and confidential information,
 including trade secrets, belonging to Gaussian, Inc.
  
 This software is provided under written license and may be
 used, copied, transmitted, or stored only in accord with that
 written license.
  
 The following legend is applicable only to US Government
 contracts under FAR:
  
                    RESTRICTED RIGHTS LEGEND
  
 Use, reproduction and disclosure by the US Government is
 subject to restrictions as set forth in subparagraphs (a)
 and (c) of the Commercial Computer Software - Restricted
 Rights clause in FAR 52.227-19.
  
 Gaussian, Inc.
 340 Quinnipiac St., Bldg. 40, Wallingford CT 06492
  
  
 ---------------------------------------------------------------
 Warning -- This program may not be used in any manner that
 competes with the business of Gaussian, Inc. or will provide
 assistance to any competitor of Gaussian, Inc.  The licensee
 of this program is prohibited from giving any competitor of
 Gaussian, Inc. access to this program.  By using this program,
 the user acknowledges that Gaussian, Inc. is engaged in the
 business of creating and licensing software in the field of
 computational chemistry and represents and warrants to the
 licensee that it is not a competitor of Gaussian, Inc. and that
 it will not use this program in any manner prohibited above.
 ---------------------------------------------------------------
  

 Cite this work as:
 Gaussian 09, Revision D.01,
 M. J. Frisch, G. W. Trucks, H. B. Schlegel, G. E. Scuseria, 
 M. A. Robb, J. R. Cheeseman, G. Scalmani, V. Barone, B. Mennucci, 
 G. A. Petersson, H. Nakatsuji, M. Caricato, X. Li, H. P. Hratchian, 
 A. F. Izmaylov, J. Bloino, G. Zheng, J. L. Sonnenberg, M. Hada, 
 M. Ehara, K. Toyota, R. Fukuda, J. Hasegawa, M. Ishida, T. Nakajima, 
 Y. Honda, O. Kitao, H. Nakai, T. Vreven, J. A. Montgomery, Jr., 
 J. E. Peralta, F. Ogliaro, M. Bearpark, J. J. Heyd, E. Brothers, 
 K. N. Kudin, V. N. Staroverov, T. Keith, R. Kobayashi, J. Normand, 
 K. Raghavachari, A. Rendell, J. C. Burant, S. S. Iyengar, J. Tomasi, 
 M. Cossi, N. Rega, J. M. Millam, M. Klene, J. E. Knox, J. B. Cross, 
 V. Bakken, C. Adamo, J. Jaramillo, R. Gomperts, R. E. Stratmann, 
 O. Yazyev, A. J. Austin, R. Cammi, C. Pomelli, J. W. Ochterski, 
 R. L. Martin, K. Morokuma, V. G. Zakrzewski, G. A. Voth, 
 P. Salvador, J. J. Dannenberg, S. Dapprich, A. D. Daniels, 
 O. Farkas, J. B. Foresman, J. V. Ortiz, J. Cioslowski, 
 and D. J. Fox, Gaussian, Inc., Wallingford CT, 2013.
 
 ******************************************
 Gaussian 09:  ES64L-G09RevD.01 24-Apr-2013
                 2-Jun-2021 
 ******************************************
 %nprocshared=16
 Will use up to   16 processors via shared memory.
 %mem=25GB
 %chk=NHC13.chk
 ----------------------------------------------------------
 #p opt freq n12sx/6-311+g(d,p) scrf=(iefpcm,solvent=water)
 ----------------------------------------------------------
 1/14=-1,18=20,19=15,26=3,38=1/1,3;
 2/9=110,12=2,17=6,18=5,40=1/2;
 3/5=4,6=6,7=111,11=2,16=1,25=1,30=1,70=2201,71=1,72=1,74=-69/1,2,3;
 4//1;
 5/5=2,38=5,53=1/2;
 6/7=2,8=2,9=2,10=2,28=1/1;
 7//1,2,3,16;
 1/14=-1,18=20,19=15,26=3/3(2);
 2/9=110/2;
 99//99;
 2/9=110/2;
 3/5=4,6=6,7=111,11=2,16=1,25=1,30=1,70=2205,71=1,72=1,74=-69/1,2,3;
 4/5=5,16=3,69=1/1;
 5/5=2,38=5,53=1/2;
 7//1,2,3,16;
 1/14=-1,18=20,19=15,26=3/3(-5);
 2/9=110/2;
 6/7=2,8=2,9=2,10=2,19=2,28=1/1;
 99/9=1/99;
 Leave Link    1 at Wed Jun  2 12:03:29 2021, MaxMem=  3355443200 cpu:         0.7
 (Enter /usr/local/gqt/g09/l101.exe)
 -----
 TITLE
 -----
 Symbolic Z-matrix:
 Charge =  0 Multiplicity = 1
 N                    0     8.11309   1.41499   0.97053 
 C                    0     6.85613   1.32887   0.9547 
 N                    0     6.48437   0.11871   0.94616 
 C                    0     7.63346  -0.71225   1.33346 
 N                    0     8.49155   0.24466   0.97141 
 C                    0     6.18004   2.10546  -0.13196 
 C                    0     5.78295   1.04496  -1.15038 
 C                    0     5.78951  -0.13408  -0.32433 
 C                    0     9.6762   -0.04813   0.6343 
 C                    0     10.56357   0.96008   0.25802 
 C                    0     11.86876   0.63744  -0.11351 
 C                    0     12.28651  -0.69334  -0.10861 
 C                    0     11.3992  -1.70152   0.26776 
 C                    0     10.09395  -1.3789    0.6392 
 O                    0     9.23187  -2.35828   1.00477 
 C                    0     9.84982  -3.6151    0.94026 
 O                    0     10.15774   2.25287   0.25338 
 C                    0     11.1981   3.09981  -0.15401 
 H                    0     5.2818    2.63324   0.25968 
 H                    0     6.83512   2.89317  -0.56687 
 H                    0     6.52598   0.97104  -1.97573 
 H                    0     4.81764   1.24062  -1.66871 
 H                    0     4.73934  -0.43489  -0.11116 
 H                    0     6.32461  -0.94529  -0.8669 
 H                    0     12.56858   1.4325   -0.41036 
 H                    0     13.31581  -0.94774  -0.40159 
 H                    0     11.7287  -2.751     0.27166 
 H                    0     9.12388  -4.40208   1.24429 
 H                    0     10.19002  -3.80759  -0.10185 
 H                    0     10.72569  -3.63336   1.62676 
 H                    0     10.84192   4.15427  -0.15 
 H                    0     12.05634   2.99601   0.547 
 H                    0     11.52177   2.82163  -1.18193 
 
 NAtoms=     33 NQM=       33 NQMF=       0 NMMI=      0 NMMIF=      0
                NMic=       0 NMicF=      0.
                    Isotopes and Nuclear Properties:
 (Nuclear quadrupole moments (NQMom) in fm**2, nuclear magnetic moments (NMagM)
  in nuclear magnetons)

  Atom         1           2           3           4           5           6           7           8           9          10
 IAtWgt=          14          12          14          12          14          12          12          12          12          12
 AtmWgt=  14.0030740  12.0000000  14.0030740  12.0000000  14.0030740  12.0000000  12.0000000  12.0000000  12.0000000  12.0000000
 NucSpn=           2           0           2           0           2           0           0           0           0           0
 AtZEff=   0.0000000   0.0000000   0.0000000   0.0000000   0.0000000   0.0000000   0.0000000   0.0000000   0.0000000   0.0000000
 NQMom=    2.0440000   0.0000000   2.0440000   0.0000000   2.0440000   0.0000000   0.0000000   0.0000000   0.0000000   0.0000000
 NMagM=    0.4037610   0.0000000   0.4037610   0.0000000   0.4037610   0.0000000   0.0000000   0.0000000   0.0000000   0.0000000
 AtZNuc=   7.0000000   6.0000000   7.0000000   6.0000000   7.0000000   6.0000000   6.0000000   6.0000000   6.0000000   6.0000000

  Atom        11          12          13          14          15          16          17          18          19          20
 IAtWgt=          12          12          12          12          16          12          16          12           1           1
 AtmWgt=  12.0000000  12.0000000  12.0000000  12.0000000  15.9949146  12.0000000  15.9949146  12.0000000   1.0078250   1.0078250
 NucSpn=           0           0           0           0           0           0           0           0           1           1
 AtZEff=   0.0000000   0.0000000   0.0000000   0.0000000   0.0000000   0.0000000   0.0000000   0.0000000   0.0000000   0.0000000
 NQMom=    0.0000000   0.0000000   0.0000000   0.0000000   0.0000000   0.0000000   0.0000000   0.0000000   0.0000000   0.0000000
 NMagM=    0.0000000   0.0000000   0.0000000   0.0000000   0.0000000   0.0000000   0.0000000   0.0000000   2.7928460   2.7928460
 AtZNuc=   6.0000000   6.0000000   6.0000000   6.0000000   8.0000000   6.0000000   8.0000000   6.0000000   1.0000000   1.0000000

  Atom        21          22          23          24          25          26          27          28          29          30
 IAtWgt=           1           1           1           1           1           1           1           1           1           1
 AtmWgt=   1.0078250   1.0078250   1.0078250   1.0078250   1.0078250   1.0078250   1.0078250   1.0078250   1.0078250   1.0078250
 NucSpn=           1           1           1           1           1           1           1           1           1           1
 AtZEff=   0.0000000   0.0000000   0.0000000   0.0000000   0.0000000   0.0000000   0.0000000   0.0000000   0.0000000   0.0000000
 NQMom=    0.0000000   0.0000000   0.0000000   0.0000000   0.0000000   0.0000000   0.0000000   0.0000000   0.0000000   0.0000000
 NMagM=    2.7928460   2.7928460   2.7928460   2.7928460   2.7928460   2.7928460   2.7928460   2.7928460   2.7928460   2.7928460
 AtZNuc=   1.0000000   1.0000000   1.0000000   1.0000000   1.0000000   1.0000000   1.0000000   1.0000000   1.0000000   1.0000000

  Atom        31          32          33
 IAtWgt=           1           1           1
 AtmWgt=   1.0078250   1.0078250   1.0078250
 NucSpn=           1           1           1
 AtZEff=   0.0000000   0.0000000   0.0000000
 NQMom=    0.0000000   0.0000000   0.0000000
 NMagM=    2.7928460   2.7928460   2.7928460
 AtZNuc=   1.0000000   1.0000000   1.0000000
 Leave Link  101 at Wed Jun  2 12:03:30 2021, MaxMem=  3355443200 cpu:         6.8
 (Enter /usr/local/gqt/g09/l103.exe)

 GradGradGradGradGradGradGradGradGradGradGradGradGradGradGradGradGradGrad
 Berny optimization.
 Initialization pass.
                           ----------------------------
                           !    Initial Parameters    !
                           ! (Angstroms and Degrees)  !
 --------------------------                            --------------------------
 ! Name  Definition              Value          Derivative Info.                !
 --------------------------------------------------------------------------------
 ! R1    R(1,2)                  1.26           estimate D2E/DX2                !
 ! R2    R(1,5)                  1.23           estimate D2E/DX2                !
 ! R3    R(2,3)                  1.266          estimate D2E/DX2                !
 ! R4    R(2,6)                  1.497          estimate D2E/DX2                !
 ! R5    R(3,4)                  1.47           estimate D2E/DX2                !
 ! R6    R(3,8)                  1.47           estimate D2E/DX2                !
 ! R7    R(4,5)                  1.3353         estimate D2E/DX2                !
 ! R8    R(5,9)                  1.266          estimate D2E/DX2                !
 ! R9    R(6,7)                  1.523          estimate D2E/DX2                !
 ! R10   R(6,19)                 1.113          estimate D2E/DX2                !
 ! R11   R(6,20)                 1.113          estimate D2E/DX2                !
 ! R12   R(7,8)                  1.4396         estimate D2E/DX2                !
 ! R13   R(7,21)                 1.113          estimate D2E/DX2                !
 ! R14   R(7,22)                 1.113          estimate D2E/DX2                !
 ! R15   R(8,23)                 1.113          estimate D2E/DX2                !
 ! R16   R(8,24)                 1.113          estimate D2E/DX2                !
 ! R17   R(9,10)                 1.3948         estimate D2E/DX2                !
 ! R18   R(9,14)                 1.3948         estimate D2E/DX2                !
 ! R19   R(10,11)                1.3949         estimate D2E/DX2                !
 ! R20   R(10,17)                1.355          estimate D2E/DX2                !
 ! R21   R(11,12)                1.3948         estimate D2E/DX2                !
 ! R22   R(11,25)                1.1            estimate D2E/DX2                !
 ! R23   R(12,13)                1.3948         estimate D2E/DX2                !
 ! R24   R(12,26)                1.1            estimate D2E/DX2                !
 ! R25   R(13,14)                1.3949         estimate D2E/DX2                !
 ! R26   R(13,27)                1.1            estimate D2E/DX2                !
 ! R27   R(14,15)                1.355          estimate D2E/DX2                !
 ! R28   R(15,16)                1.402          estimate D2E/DX2                !
 ! R29   R(16,28)                1.113          estimate D2E/DX2                !
 ! R30   R(16,29)                1.113          estimate D2E/DX2                !
 ! R31   R(16,30)                1.113          estimate D2E/DX2                !
 ! R32   R(17,18)                1.402          estimate D2E/DX2                !
 ! R33   R(18,31)                1.113          estimate D2E/DX2                !
 ! R34   R(18,32)                1.113          estimate D2E/DX2                !
 ! R35   R(18,33)                1.113          estimate D2E/DX2                !
 ! A1    A(2,1,5)              104.0            estimate D2E/DX2                !
 ! A2    A(1,2,3)              111.0            estimate D2E/DX2                !
 ! A3    A(1,2,6)              115.1            estimate D2E/DX2                !
 ! A4    A(3,2,6)              111.0            estimate D2E/DX2                !
 ! A5    A(2,3,4)              108.0            estimate D2E/DX2                !
 ! A6    A(2,3,8)              108.0            estimate D2E/DX2                !
 ! A7    A(4,3,8)              120.0            estimate D2E/DX2                !
 ! A8    A(3,4,5)               91.4788         estimate D2E/DX2                !
 ! A9    A(1,5,4)              118.9676         estimate D2E/DX2                !
 ! A10   A(1,5,9)              120.5162         estimate D2E/DX2                !
 ! A11   A(4,5,9)              120.5162         estimate D2E/DX2                !
 ! A12   A(2,6,7)              104.0            estimate D2E/DX2                !
 ! A13   A(2,6,19)             110.7973         estimate D2E/DX2                !
 ! A14   A(2,6,20)             112.6423         estimate D2E/DX2                !
 ! A15   A(7,6,19)             110.7974         estimate D2E/DX2                !
 ! A16   A(7,6,20)             112.6424         estimate D2E/DX2                !
 ! A17   A(19,6,20)            106.0753         estimate D2E/DX2                !
 ! A18   A(6,7,8)              100.6847         estimate D2E/DX2                !
 ! A19   A(6,7,21)             111.5961         estimate D2E/DX2                !
 ! A20   A(6,7,22)             114.5284         estimate D2E/DX2                !
 ! A21   A(8,7,21)             111.5961         estimate D2E/DX2                !
 ! A22   A(8,7,22)             114.5283         estimate D2E/DX2                !
 ! A23   A(21,7,22)            104.2012         estimate D2E/DX2                !
 ! A24   A(3,8,7)              110.9301         estimate D2E/DX2                !
 ! A25   A(3,8,23)             109.0835         estimate D2E/DX2                !
 ! A26   A(3,8,24)             108.6264         estimate D2E/DX2                !
 ! A27   A(7,8,23)             109.0836         estimate D2E/DX2                !
 ! A28   A(7,8,24)             108.6264         estimate D2E/DX2                !
 ! A29   A(23,8,24)            110.4887         estimate D2E/DX2                !
 ! A30   A(5,9,10)             119.9986         estimate D2E/DX2                !
 ! A31   A(5,9,14)             119.9986         estimate D2E/DX2                !
 ! A32   A(10,9,14)            120.0029         estimate D2E/DX2                !
 ! A33   A(9,10,11)            119.9969         estimate D2E/DX2                !
 ! A34   A(9,10,17)            120.0015         estimate D2E/DX2                !
 ! A35   A(11,10,17)           120.0015         estimate D2E/DX2                !
 ! A36   A(10,11,12)           120.0002         estimate D2E/DX2                !
 ! A37   A(10,11,25)           119.9999         estimate D2E/DX2                !
 ! A38   A(12,11,25)           119.9998         estimate D2E/DX2                !
 ! A39   A(11,12,13)           120.0032         estimate D2E/DX2                !
 ! A40   A(11,12,26)           119.9984         estimate D2E/DX2                !
 ! A41   A(13,12,26)           119.9983         estimate D2E/DX2                !
 ! A42   A(12,13,14)           119.9971         estimate D2E/DX2                !
 ! A43   A(12,13,27)           120.0014         estimate D2E/DX2                !
 ! A44   A(14,13,27)           120.0014         estimate D2E/DX2                !
 ! A45   A(9,14,13)            119.9996         estimate D2E/DX2                !
 ! A46   A(9,14,15)            120.0003         estimate D2E/DX2                !
 ! A47   A(13,14,15)           120.0002         estimate D2E/DX2                !
 ! A48   A(14,15,16)           110.8001         estimate D2E/DX2                !
 ! A49   A(15,16,28)           109.5001         estimate D2E/DX2                !
 ! A50   A(15,16,29)           109.4418         estimate D2E/DX2                !
 ! A51   A(15,16,30)           109.4618         estimate D2E/DX2                !
 ! A52   A(28,16,29)           109.4418         estimate D2E/DX2                !
 ! A53   A(28,16,30)           109.4618         estimate D2E/DX2                !
 ! A54   A(29,16,30)           109.52           estimate D2E/DX2                !
 ! A55   A(10,17,18)           110.8            estimate D2E/DX2                !
 ! A56   A(17,18,31)           109.5            estimate D2E/DX2                !
 ! A57   A(17,18,32)           109.4418         estimate D2E/DX2                !
 ! A58   A(17,18,33)           109.4618         estimate D2E/DX2                !
 ! A59   A(31,18,32)           109.4418         estimate D2E/DX2                !
 ! A60   A(31,18,33)           109.4619         estimate D2E/DX2                !
 ! A61   A(32,18,33)           109.52           estimate D2E/DX2                !
 ! D1    D(5,1,2,3)              0.0            estimate D2E/DX2                !
 ! D2    D(5,1,2,6)           -127.1359         estimate D2E/DX2                !
 ! D3    D(2,1,5,4)            -18.7613         estimate D2E/DX2                !
 ! D4    D(2,1,5,9)            161.2387         estimate D2E/DX2                !
 ! D5    D(1,2,3,4)             15.5907         estimate D2E/DX2                !
 ! D6    D(1,2,3,8)           -115.5842         estimate D2E/DX2                !
 ! D7    D(6,2,3,4)            144.9408         estimate D2E/DX2                !
 ! D8    D(6,2,3,8)             13.7659         estimate D2E/DX2                !
 ! D9    D(1,2,6,7)            104.0609         estimate D2E/DX2                !
 ! D10   D(1,2,6,19)          -136.8521         estimate D2E/DX2                !
 ! D11   D(1,2,6,20)           -18.2083         estimate D2E/DX2                !
 ! D12   D(3,2,6,7)            -23.0749         estimate D2E/DX2                !
 ! D13   D(3,2,6,19)            96.012          estimate D2E/DX2                !
 ! D14   D(3,2,6,20)          -145.3442         estimate D2E/DX2                !
 ! D15   D(2,3,4,5)            -22.2645         estimate D2E/DX2                !
 ! D16   D(8,3,4,5)            101.9836         estimate D2E/DX2                !
 ! D17   D(2,3,8,7)              1.3724         estimate D2E/DX2                !
 ! D18   D(2,3,8,23)          -118.8076         estimate D2E/DX2                !
 ! D19   D(2,3,8,24)           120.698          estimate D2E/DX2                !
 ! D20   D(4,3,8,7)           -122.8757         estimate D2E/DX2                !
 ! D21   D(4,3,8,23)           116.9443         estimate D2E/DX2                !
 ! D22   D(4,3,8,24)            -3.5501         estimate D2E/DX2                !
 ! D23   D(3,4,5,1)             25.2463         estimate D2E/DX2                !
 ! D24   D(3,4,5,9)           -154.7538         estimate D2E/DX2                !
 ! D25   D(1,5,9,10)            -0.0001         estimate D2E/DX2                !
 ! D26   D(1,5,9,14)           180.0            estimate D2E/DX2                !
 ! D27   D(4,5,9,10)          -180.0            estimate D2E/DX2                !
 ! D28   D(4,5,9,14)             0.0001         estimate D2E/DX2                !
 ! D29   D(2,6,7,8)             21.3101         estimate D2E/DX2                !
 ! D30   D(2,6,7,21)           -97.2135         estimate D2E/DX2                !
 ! D31   D(2,6,7,22)           144.7095         estimate D2E/DX2                !
 ! D32   D(19,6,7,8)           -97.7768         estimate D2E/DX2                !
 ! D33   D(19,6,7,21)          143.6997         estimate D2E/DX2                !
 ! D34   D(19,6,7,22)           25.6226         estimate D2E/DX2                !
 ! D35   D(20,6,7,8)           143.5793         estimate D2E/DX2                !
 ! D36   D(20,6,7,21)           25.0557         estimate D2E/DX2                !
 ! D37   D(20,6,7,22)          -93.0213         estimate D2E/DX2                !
 ! D38   D(6,7,8,3)            -14.8502         estimate D2E/DX2                !
 ! D39   D(6,7,8,23)           105.3297         estimate D2E/DX2                !
 ! D40   D(6,7,8,24)          -134.1758         estimate D2E/DX2                !
 ! D41   D(21,7,8,3)           103.6733         estimate D2E/DX2                !
 ! D42   D(21,7,8,23)         -136.1467         estimate D2E/DX2                !
 ! D43   D(21,7,8,24)          -15.6522         estimate D2E/DX2                !
 ! D44   D(22,7,8,3)          -138.2497         estimate D2E/DX2                !
 ! D45   D(22,7,8,23)          -18.0698         estimate D2E/DX2                !
 ! D46   D(22,7,8,24)          102.4247         estimate D2E/DX2                !
 ! D47   D(5,9,10,11)         -179.9942         estimate D2E/DX2                !
 ! D48   D(5,9,10,17)            0.0058         estimate D2E/DX2                !
 ! D49   D(14,9,10,11)           0.0058         estimate D2E/DX2                !
 ! D50   D(14,9,10,17)        -179.9942         estimate D2E/DX2                !
 ! D51   D(5,9,14,13)          179.9987         estimate D2E/DX2                !
 ! D52   D(5,9,14,15)           -0.0012         estimate D2E/DX2                !
 ! D53   D(10,9,14,13)          -0.0012         estimate D2E/DX2                !
 ! D54   D(10,9,14,15)         179.9988         estimate D2E/DX2                !
 ! D55   D(9,10,11,12)          -0.0058         estimate D2E/DX2                !
 ! D56   D(9,10,11,25)         179.9942         estimate D2E/DX2                !
 ! D57   D(17,10,11,12)        179.9942         estimate D2E/DX2                !
 ! D58   D(17,10,11,25)         -0.0058         estimate D2E/DX2                !
 ! D59   D(9,10,17,18)         180.0            estimate D2E/DX2                !
 ! D60   D(11,10,17,18)          0.0            estimate D2E/DX2                !
 ! D61   D(10,11,12,13)          0.0013         estimate D2E/DX2                !
 ! D62   D(10,11,12,26)       -179.9988         estimate D2E/DX2                !
 ! D63   D(25,11,12,13)       -179.9987         estimate D2E/DX2                !
 ! D64   D(25,11,12,26)          0.0012         estimate D2E/DX2                !
 ! D65   D(11,12,13,14)          0.0033         estimate D2E/DX2                !
 ! D66   D(11,12,13,27)       -179.9966         estimate D2E/DX2                !
 ! D67   D(26,12,13,14)       -179.9966         estimate D2E/DX2                !
 ! D68   D(26,12,13,27)          0.0035         estimate D2E/DX2                !
 ! D69   D(12,13,14,9)          -0.0033         estimate D2E/DX2                !
 ! D70   D(12,13,14,15)        179.9966         estimate D2E/DX2                !
 ! D71   D(27,13,14,9)         179.9966         estimate D2E/DX2                !
 ! D72   D(27,13,14,15)         -0.0035         estimate D2E/DX2                !
 ! D73   D(9,14,15,16)        -180.0            estimate D2E/DX2                !
 ! D74   D(13,14,15,16)          0.0001         estimate D2E/DX2                !
 ! D75   D(14,15,16,28)        180.0            estimate D2E/DX2                !
 ! D76   D(14,15,16,29)        -60.0364         estimate D2E/DX2                !
 ! D77   D(14,15,16,30)         59.9996         estimate D2E/DX2                !
 ! D78   D(10,17,18,31)       -179.9999         estimate D2E/DX2                !
 ! D79   D(10,17,18,32)        -60.0364         estimate D2E/DX2                !
 ! D80   D(10,17,18,33)         59.9996         estimate D2E/DX2                !
 --------------------------------------------------------------------------------
 Trust Radius=3.00D-01 FncErr=1.00D-07 GrdErr=1.00D-06
 Number of steps in this run=    186 maximum allowed number of steps=    198.
 GradGradGradGradGradGradGradGradGradGradGradGradGradGradGradGradGradGrad

 Leave Link  103 at Wed Jun  2 12:03:30 2021, MaxMem=  3355443200 cpu:         0.1
 (Enter /usr/local/gqt/g09/l202.exe)
                          Input orientation:                          
 ---------------------------------------------------------------------
 Center     Atomic      Atomic             Coordinates (Angstroms)
 Number     Number       Type             X           Y           Z
 ---------------------------------------------------------------------
      1          7           0        8.113087    1.414990    0.970526
      2          6           0        6.856134    1.328865    0.954696
      3          7           0        6.484366    0.118711    0.946164
      4          6           0        7.633459   -0.712247    1.333455
      5          7           0        8.491550    0.244663    0.971405
      6          6           0        6.180042    2.105460   -0.131955
      7          6           0        5.782946    1.044962   -1.150378
      8          6           0        5.789505   -0.134083   -0.324334
      9          6           0        9.676199   -0.048126    0.634302
     10          6           0       10.563568    0.960079    0.258019
     11          6           0       11.868758    0.637437   -0.113508
     12          6           0       12.286514   -0.693336   -0.108611
     13          6           0       11.399195   -1.701522    0.267755
     14          6           0       10.093954   -1.378899    0.639199
     15          8           0        9.231874   -2.358285    1.004775
     16          6           0        9.849819   -3.615100    0.940255
     17          8           0       10.157743    2.252871    0.253384
     18          6           0       11.198095    3.099808   -0.154007
     19          1           0        5.281798    2.633236    0.259682
     20          1           0        6.835124    2.893172   -0.566865
     21          1           0        6.525976    0.971040   -1.975732
     22          1           0        4.817640    1.240619   -1.668714
     23          1           0        4.739344   -0.434891   -0.111159
     24          1           0        6.324615   -0.945286   -0.866899
     25          1           0       12.568584    1.432498   -0.410360
     26          1           0       13.315807   -0.947738   -0.401586
     27          1           0       11.728701   -2.751003    0.271660
     28          1           0        9.123879   -4.402081    1.244294
     29          1           0       10.190024   -3.807588   -0.101848
     30          1           0       10.725689   -3.633364    1.626759
     31          1           0       10.841919    4.154270   -0.149996
     32          1           0       12.056342    2.996013    0.546999
     33          1           0       11.521766    2.821632   -1.181929
 ---------------------------------------------------------------------
                    Distance matrix (angstroms):
                    1          2          3          4          5
     1  N    0.000000
     2  C    1.260000   0.000000
     3  N    2.081746   1.266000   0.000000
     4  C    2.210633   2.216716   1.470000   0.000000
     5  N    1.230000   1.962233   2.011290   1.335319   0.000000
     6  C    2.329995   1.497001   2.280817   3.492753   3.165918
     7  C    3.172493   2.379847   2.396960   3.561125   3.532560
     8  C    3.078201   2.216716   1.470001   2.546116   3.020502
     9  C    2.167273   3.154603   3.211369   2.258906   1.266000
    10  C    2.592194   3.790307   4.221532   3.541013   2.305211
    11  C    3.985572   5.171608   5.512137   4.674731   3.568871
    12  C    4.798653   5.891430   5.952889   4.871430   4.055617
    13  C    4.583126   5.504047   5.284792   4.036725   3.568916
    14  C    3.440847   4.232612   3.919973   2.642054   2.305214
    15  O    3.935792   4.386539   3.699695   2.317844   2.706387
    16  C    5.321556   5.779719   5.026694   3.673338   4.091899
    17  O    2.323135   3.499464   4.304449   4.041100   2.706410
    18  C    3.690591   4.818515   5.684765   5.426872   4.091918
    19  H    3.163166   2.159389   2.870586   4.227949   4.063784
    20  H    2.486319   2.182349   3.179610   4.153023   3.482043
    21  H    3.375863   2.970598   3.043957   3.874363   3.616175
    22  H    4.225632   3.323481   3.297611   4.555825   4.632469
    23  H    3.996779   2.954265   2.114121   3.246496   3.963936
    24  H    3.485063   2.961838   2.108271   2.570785   3.080738
    25  H    4.664612   5.874198   6.370550   5.656525   4.465695
    26  H    5.876519   6.982106   7.044312   5.945999   5.155616
    27  H    5.560268   6.391695   6.016084   4.696269   4.465737
    28  H    5.910581   6.170112   5.243422   3.980474   4.697503
    29  H    5.721798   6.214037   5.499641   4.263479   4.522988
    30  H    5.722081   6.328415   5.703516   4.263899   4.523269
    31  H    4.025636   5.008966   6.039501   6.014801   4.697531
    32  H    4.269458   5.476108   6.283718   5.825084   4.523029
    33  H    4.269754   5.344309   6.099997   5.825323   4.523254
                    6          7          8          9         10
     6  C    0.000000
     7  C    1.522999   0.000000
     8  C    2.281465   1.439631   0.000000
     9  C    4.177104   4.420107   4.004093   0.000000
    10  C    4.547447   4.984489   4.932343   1.394808   0.000000
    11  C    5.875110   6.186945   6.131640   2.415891   1.394866
    12  C    6.717351   6.812001   6.524602   2.789616   2.415935
    13  C    6.472437   6.410657   5.854576   2.415945   2.789711
    14  C    5.296616   5.259513   4.583257   1.394812   2.415917
    15  O    5.525473   5.303007   4.308539   2.381493   3.652751
    16  C    6.880531   6.528888   5.495709   3.584279   4.680507
    17  O    3.999040   4.750625   5.011268   2.381506   1.355001
    18  C    5.115669   5.876988   6.303960   3.584283   2.269544
    19  H    1.113000   2.182208   2.873481   5.161473   5.540447
    20  H    1.113000   2.205322   3.211917   4.262129   4.280021
    21  H    2.192280   1.112999   2.119151   4.216027   4.614316
    22  H    2.228389   1.113000   2.154457   5.529045   6.066852
    23  H    2.920518   2.087833   1.112999   5.007778   6.000318
    24  H    3.141352   2.082031   1.113000   3.780425   4.781692
    25  H    6.429919   6.836863   6.958268   3.413130   2.165641
    26  H    7.766200   7.827869   7.570550   3.889616   3.413160
    27  H    7.384833   7.196078   6.517479   3.413183   3.889711
    28  H    7.273811   6.823970   5.638657   4.431035   5.638990
    29  H    7.144578   6.638448   5.736611   3.865163   4.795799
    30  H    7.529282   7.350506   6.357487   3.865273   4.795774
    31  H    5.092253   6.021775   6.629272   4.431045   3.232153
    32  H    5.982054   6.785513   7.059035   3.865163   2.541045
    33  H    5.490844   6.007629   6.506192   3.865271   2.541058
                   11         12         13         14         15
    11  C    0.000000
    12  C    1.394812   0.000000
    13  C    2.415902   1.394785   0.000000
    14  C    2.789643   2.415892   1.394887   0.000000
    15  O    4.144643   3.652740   2.381558   1.355000   0.000000
    16  C    4.823961   3.946430   2.552372   2.269544   1.402000
    17  O    2.381556   3.652786   4.144712   3.652763   4.762833
    18  C    2.552391   3.946474   4.824012   4.680504   5.916044
    19  H    6.892788   7.763232   7.497515   6.276791   6.408865
    20  H    5.534559   6.541459   6.529820   5.506828   5.982664
    21  H    5.667847   6.280134   5.993670   5.009046   5.223955
    22  H    7.245741   7.871352   7.464782   6.326755   6.291670
    23  H    7.209607   7.551594   6.789812   5.488719   5.012742
    24  H    5.814648   6.015207   5.254588   4.082189   3.735222
    25  H    1.100000   2.165591   3.413121   3.889643   5.244643
    26  H    2.165576   1.099999   2.165551   3.413132   4.543787
    27  H    3.413136   2.165584   1.100000   2.165676   2.631697
    28  H    5.897010   5.058399   3.663838   3.232153   2.060615
    29  H    4.751477   3.754182   2.456464   2.541045   2.059890
    30  H    4.751303   3.753858   2.456118   2.541058   2.060139
    31  H    3.663856   5.058444   5.897065   5.638993   6.807284
    32  H    2.456489   3.754211   4.751490   4.795761   6.070888
    33  H    2.456142   3.753911   4.751371   4.795791   6.070982
                   16         17         18         19         20
    16  C    0.000000
    17  O    5.916054   0.000000
    18  C    6.935795   1.401999   0.000000
    19  H    7.769923   4.890762   5.949067   0.000000
    20  H    7.329216   3.481751   4.387330   1.778642   0.000000
    21  H    6.370525   4.449919   5.447846   3.050893   2.403138
    22  H    7.463749   5.765051   6.816240   2.423538   2.831121
    23  H    6.110332   6.059373   7.362839   3.137703   3.959288
    24  H    4.777110   5.116260   6.373524   3.893902   3.883864
    25  H    5.890169   2.631677   2.173449   7.415388   5.918668
    26  H    4.574760   4.543815   4.574782   8.820768   7.535195
    27  H    2.173449   5.244711   5.890223   8.399567   7.517109
    28  H    1.112999   6.807288   7.907968   8.076307   7.857443
    29  H    1.113000   6.070947   6.980763   8.105899   7.508114
    30  H    1.113000   6.070954   6.980680   8.412795   7.908486
    31  H    7.907972   2.060614   1.112999   5.778955   4.221203
    32  H    6.980703   2.059890   1.113001   6.790332   5.339699
    33  H    6.980730   2.060139   1.113000   6.407100   4.727371
                   21         22         23         24         25
    21  H    0.000000
    22  H    1.756515   0.000000
    23  H    2.940294   2.288983   0.000000
    24  H    2.223142   2.773457   1.828860   0.000000
    25  H    6.259109   7.854770   8.054419   6.696972   0.000000
    26  H    7.229208   8.866418   8.596690   7.006660   2.494783
    27  H    6.780319   8.213456   7.373062   5.810428   4.321138
    28  H    6.781452   7.672638   6.066300   4.923662   6.974682
    29  H    6.306503   7.536708   6.409765   4.870263   5.762918
    30  H    7.198338   8.337919   7.006205   5.728311   5.762731
    31  H    5.665124   6.862055   7.635662   6.850216   3.233760
    32  H    6.406999   7.771074   8.108189   7.098284   1.903551
    33  H    5.386347   6.905206   7.599522   6.426453   1.902850
                   26         27         28         29         30
    26  H    0.000000
    27  H    2.494781   0.000000
    28  H    5.675708   3.233755   0.000000
    29  H    4.247247   1.903525   1.817192   0.000000
    30  H    4.246820   1.902863   1.817416   1.818069   0.000000
    31  H    5.675729   6.974738   8.837808   7.988646   7.988593
    32  H    4.247262   5.762929   7.988576   7.084711   6.847274
    33  H    4.246842   5.762812   7.988645   6.847384   7.084451
                   31         32         33
    31  H    0.000000
    32  H    1.817191   0.000000
    33  H    1.817416   1.818068   0.000000
 Stoichiometry    C13H15N3O2
 Framework group  C1[X(C13H15N3O2)]
 Deg. of freedom    93
 Full point group                 C1      NOp   1
 Largest Abelian subgroup         C1      NOp   1
 Largest concise Abelian subgroup C1      NOp   1
                         Standard orientation:                         
 ---------------------------------------------------------------------
 Center     Atomic      Atomic             Coordinates (Angstroms)
 Number     Number       Type             X           Y           Z
 ---------------------------------------------------------------------
      1          7           0        1.235309    0.744624   -0.824683
      2          6           0        2.374862    0.208077   -0.790964
      3          7           0        2.284131   -1.036725   -0.578853
      4          6           0        0.891872   -1.439169   -0.824930
      5          7           0        0.460239   -0.190548   -0.630722
      6          6           0        3.348266    0.843472    0.152310
      7          6           0        3.394333   -0.114900    1.335073
      8          6           0        2.913876   -1.323623    0.718072
      9          6           0       -0.728245    0.027321   -0.252839
     10          6           0       -1.167759    1.335942   -0.053273
     11          6           0       -2.477189    1.575943    0.363191
     12          6           0       -3.347027    0.507344    0.579938
     13          6           0       -2.907558   -0.801255    0.380287
     14          6           0       -1.598082   -1.041279   -0.036092
     15          8           0       -1.171063   -2.312530   -0.230002
     16          6           0       -2.196414   -3.229131    0.042212
     17          8           0       -0.322762    2.374027   -0.263955
     18          6           0       -0.961084    3.595586   -0.007169
     19          1           0        4.351919    0.937424   -0.319520
     20          1           0        3.048697    1.874018    0.447274
     21          1           0        2.724500    0.218701    2.158966
     22          1           0        4.393713   -0.207401    1.816169
     23          1           0        3.770009   -2.017339    0.561354
     24          1           0        2.154607   -1.786789    1.387218
     25          1           0       -2.823830    2.607949    0.520684
     26          1           0       -4.379651    0.696645    0.908346
     27          1           0       -3.593586   -1.643966    0.551177
     28          1           0       -1.822973   -4.264410   -0.123643
     29          1           0       -2.521510   -3.117718    1.100829
     30          1           0       -3.058326   -3.033020   -0.634115
     31          1           0       -0.248901    4.431864   -0.186619
     32          1           0       -1.838346    3.704515   -0.683421
     33          1           0       -1.302582    3.620121    1.051861
 ---------------------------------------------------------------------
 Rotational constants (GHZ):      0.6287679      0.4100789      0.2717782
 Leave Link  202 at Wed Jun  2 12:03:30 2021, MaxMem=  3355443200 cpu:         0.0
 (Enter /usr/local/gqt/g09/l301.exe)
 Standard basis: 6-311+G(d,p) (5D, 7F)
 Ernie: Thresh=  0.10000D-02 Tol=  0.10000D-05 Strict=F.
 There are   504 symmetry adapted cartesian basis functions of A   symmetry.
 There are   486 symmetry adapted basis functions of A   symmetry.
   486 basis functions,   768 primitive gaussians,   504 cartesian basis functions
    65 alpha electrons       65 beta electrons
       nuclear repulsion energy      1391.8737659724 Hartrees.
 IExCor= 5547 DFT=T Ex+Corr=N12SX ExCW=0 ScaHFX=  0.250000
 ScaDFX=  1.000000  1.000000  1.000000  1.000000 ScalE2=  1.000000  1.000000
 IRadAn=      0 IRanWt=     -1 IRanGd=            0 ICorTp=0 IEmpDi=  4
  HFx wShort=  0.110000 wLong=  0.000000 cFull=  0.000000 cShort=  1.000000 cLong=  0.000000
  DFx wShort=  0.110000 wLong=  0.000000 cFull=  0.000000 cShort=  1.000000 cLong=  0.000000
 NAtoms=   33 NActive=   33 NUniq=   33 SFac= 1.00D+00 NAtFMM=   60 NAOKFM=F Big=F
 Integral buffers will be    131072 words long.
 Raffenetti 2 integral format.
 Two-electron integral symmetry is turned on.
 ------------------------------------------------------------------------------
 Polarizable Continuum Model (PCM)
 =================================
 Model                : PCM (using non-symmetric T matrix).
 Atomic radii         : UFF (Universal Force Field).
 Polarization charges : Total charges.
 Charge compensation  : None.
 Solution method      : On-the-fly selection.
 Cavity type          : Scaled VdW (van der Waals Surface) (Alpha=1.100).
 Cavity algorithm     : GePol (No added spheres)
                        Default sphere list used, NSphG=   33.
                        Lebedev-Laikov grids with approx.  5.0 points / Ang**2.
                        Smoothing algorithm: Karplus/York (Gamma=1.0000).
                        Polarization charges: spherical gaussians, with
                                              point-specific exponents (IZeta= 3).
                        Self-potential: point-specific (ISelfS= 7).
                        Self-field    : sphere-specific E.n sum rule (ISelfD= 2).
 1st derivatives      : Analytical E(r).r(x)/FMM algorithm (CHGder, D1EAlg=3).
                        Cavity 1st derivative terms included.
 Solvent              : Water, Eps=  78.355300 Eps(inf)=   1.777849
 ------------------------------------------------------------------------------
 GePol: Number of generator spheres                  =      33
 GePol: Total number of spheres                      =      33
 GePol: Number of exposed spheres                    =      33 (100.00%)
 GePol: Number of points                             =    2370
 GePol: Average weight of points                     =       0.13
 GePol: Minimum weight of points                     =   0.19D-09
 GePol: Maximum weight of points                     =    0.20577
 GePol: Number of points with low weight             =     174
 GePol: Fraction of low-weight points (<1% of avg)   =       7.34%
 GePol: Cavity surface area                          =    303.479 Ang**2
 GePol: Cavity volume                                =    327.696 Ang**3
 Leave Link  301 at Wed Jun  2 12:03:30 2021, MaxMem=  3355443200 cpu:         0.8
 (Enter /usr/local/gqt/g09/l302.exe)
 NPDir=0 NMtPBC=     1 NCelOv=     1 NCel=       1 NClECP=     1 NCelD=      1
         NCelK=      1 NCelE2=     1 NClLst=     1 CellRange=     0.0.
 One-electron integrals computed using PRISM.
 NBasis=   486 RedAO= T EigKep=  1.16D-06  NBF=   486
 NBsUse=   484 1.00D-06 EigRej=  4.59D-07 NBFU=   484
 Precomputing XC quadrature grid using
 IXCGrd= 4 IRadAn=           0 IRanWt=          -1 IRanGd=           0 AccXCQ= 0.00D+00.
 Generated NRdTot=       0 NPtTot=           0 NUsed=           0 NTot=          32
 NSgBfM=   503   503   503   503   503 MxSgAt=    33 MxSgA2=    33.
 Leave Link  302 at Wed Jun  2 12:03:30 2021, MaxMem=  3355443200 cpu:        10.1
 (Enter /usr/local/gqt/g09/l303.exe)
 DipDrv:  MaxL=1.
 Leave Link  303 at Wed Jun  2 12:03:31 2021, MaxMem=  3355443200 cpu:         1.0
 (Enter /usr/local/gqt/g09/l401.exe)
 ExpMin= 4.38D-02 ExpMax= 8.59D+03 ExpMxC= 1.30D+03 IAcc=2 IRadAn=         4 AccDes= 0.00D+00
 Harris functional with IExCor= 5547 and IRadAn=       4 diagonalized for initial guess.
 HarFok:  IExCor= 5547 AccDes= 0.00D+00 IRadAn=         4 IDoV= 1 UseB2=F ITyADJ=14
 ICtDFT=  3500011 ScaDFX=  1.000000  1.000000  1.000000  1.000000
 FoFCou: FMM=F IPFlag=           0 FMFlag=      100000 FMFlg1=           0
         NFxFlg=           0 DoJE=T BraDBF=F KetDBF=T FulRan=T
         wScrn=  0.000000 ICntrl=     500 IOpCl=  0 I1Cent=   200000004 NGrid=           0
         NMat0=    1 NMatS0=      1 NMatT0=    0 NMatD0=    1 NMtDS0=    0 NMtDT0=    0
 Petite list used in FoFCou.
 Harris En= -793.715412705037    
 JPrj=0 DoOrth=F DoCkMO=F.
 Leave Link  401 at Wed Jun  2 12:03:33 2021, MaxMem=  3355443200 cpu:        32.1
 (Enter /usr/local/gqt/g09/l502.exe)
 Closed shell SCF:
 Using DIIS extrapolation, IDIIS=  1040.
 Integral symmetry usage will be decided dynamically.
 IVT=      792406 IEndB=      792406 NGot=  3355443200 MDV=  3354921955
 LenX=  3354921955 LenY=  3354667435
 Requested convergence on RMS density matrix=1.00D-08 within 128 cycles.
 Requested convergence on MAX density matrix=1.00D-06.
 Requested convergence on             energy=1.00D-06.
 No special actions if energy rises.
 Fock matrices will be formed incrementally for  20 cycles.

 Cycle   1  Pass 1  IDiag  1:
 FoFJK:  IHMeth= 1 ICntrl=       0 DoSepK=T KAlg= 0 I1Cent=   0 FoldK=F
 IRaf=         1 NMat=   1 IRICut=       1 DoRegI=T DoRafI=F ISym2E= 0.
 FoFCou: FMM=F IPFlag=           0 FMFlag=      100000 FMFlg1=           0
         NFxFlg=           0 DoJE=T BraDBF=F KetDBF=F FulRan=T
         wScrn=  0.000000 ICntrl=     500 IOpCl=  0 I1Cent=           0 NGrid=           0
         NMat0=    1 NMatS0=      1 NMatT0=    0 NMatD0=    1 NMtDS0=    0 NMtDT0=    0
 Symmetry not used in FoFCou.
 Inv3:  Mode=1 IEnd=    16850700.
 Iteration    1 A*A^-1 deviation from unit magnitude is 6.88D-15 for   2370.
 Iteration    1 A*A^-1 deviation from orthogonality  is 5.12D-15 for   2184    873.
 Iteration    1 A^-1*A deviation from unit magnitude is 6.77D-15 for   2370.
 Iteration    1 A^-1*A deviation from orthogonality  is 1.59D-09 for   2057   2055.
 Iteration    2 A*A^-1 deviation from unit magnitude is 9.88D-15 for    270.
 Iteration    2 A*A^-1 deviation from orthogonality  is 8.27D-15 for   2184    873.
 Iteration    2 A^-1*A deviation from unit magnitude is 1.11D-15 for    135.
 Iteration    2 A^-1*A deviation from orthogonality  is 6.35D-16 for   2038    649.
 E= -818.324625294559    
 DIIS: error= 6.40D-02 at cycle   1 NSaved=   1.
 NSaved= 1 IEnMin= 1 EnMin= -818.324625294559     IErMin= 1 ErrMin= 6.40D-02
 ErrMax= 6.40D-02  0.00D+00 EMaxC= 1.00D-01 BMatC= 2.09D+00 BMatP= 2.09D+00
 IDIUse=3 WtCom= 3.60D-01 WtEn= 6.40D-01
 Coeff-Com:  0.100D+01
 Coeff-En:   0.100D+01
 Coeff:      0.100D+01
 Gap=     0.174 Goal=   None    Shift=    0.000
 GapD=    0.174 DampG=1.000 DampE=0.500 DampFc=0.5000 IDamp=-1.
 Damping current iteration by 5.00D-01
 RMSDP=1.93D-02 MaxDP=2.20D+00              OVMax= 3.50D-01

 Cycle   2  Pass 1  IDiag  1:
 RMSU=  5.53D-03    CP:  8.60D-01
 E= -818.426224752121     Delta-E=       -0.101599457562 Rises=F Damp=T
 DIIS: error= 2.76D-02 at cycle   2 NSaved=   2.
 NSaved= 2 IEnMin= 2 EnMin= -818.426224752121     IErMin= 2 ErrMin= 2.76D-02
 ErrMax= 2.76D-02  0.00D+00 EMaxC= 1.00D-01 BMatC= 4.28D-01 BMatP= 2.09D+00
 IDIUse=3 WtCom= 7.24D-01 WtEn= 2.76D-01
 Coeff-Com: -0.351D+00 0.135D+01
 Coeff-En:   0.270D+00 0.730D+00
 Coeff:     -0.180D+00 0.118D+01
 Gap=     0.209 Goal=   None    Shift=    0.000
 RMSDP=8.41D-03 MaxDP=4.08D-01 DE=-1.02D-01 OVMax= 3.42D-01

 Cycle   3  Pass 1  IDiag  1:
 RMSU=  8.06D-03    CP:  8.47D-01  5.86D-01
 E= -818.348639321442     Delta-E=        0.077585430678 Rises=F Damp=F
 DIIS: error= 2.68D-02 at cycle   3 NSaved=   3.
 NSaved= 3 IEnMin= 2 EnMin= -818.426224752121     IErMin= 3 ErrMin= 2.68D-02
 ErrMax= 2.68D-02  0.00D+00 EMaxC= 1.00D-01 BMatC= 3.53D-01 BMatP= 4.28D-01
 IDIUse=3 WtCom= 7.32D-01 WtEn= 2.68D-01
 Coeff-Com: -0.360D+00 0.818D+00 0.542D+00
 Coeff-En:   0.000D+00 0.613D+00 0.387D+00
 Coeff:     -0.263D+00 0.763D+00 0.501D+00
 Gap=     0.160 Goal=   None    Shift=    0.000
 RMSDP=8.98D-03 MaxDP=9.94D-01 DE= 7.76D-02 OVMax= 2.16D-01

 Cycle   4  Pass 1  IDiag  1:
 RMSU=  3.09D-03    CP:  7.46D-01  1.10D+00  3.18D-01
 E= -818.633440560896     Delta-E=       -0.284801239454 Rises=F Damp=F
 DIIS: error= 4.37D-03 at cycle   4 NSaved=   4.
 NSaved= 4 IEnMin= 4 EnMin= -818.633440560896     IErMin= 4 ErrMin= 4.37D-03
 ErrMax= 4.37D-03  0.00D+00 EMaxC= 1.00D-01 BMatC= 1.55D-02 BMatP= 3.53D-01
 IDIUse=3 WtCom= 9.56D-01 WtEn= 4.37D-02
 Coeff-Com: -0.164D+00 0.372D+00 0.316D+00 0.476D+00
 Coeff-En:   0.000D+00 0.000D+00 0.000D+00 0.100D+01
 Coeff:     -0.157D+00 0.356D+00 0.302D+00 0.499D+00
 Gap=     0.137 Goal=   None    Shift=    0.000
 RMSDP=1.61D-03 MaxDP=1.20D-01 DE=-2.85D-01 OVMax= 4.01D-02

 Cycle   5  Pass 1  IDiag  1:
 RMSU=  9.91D-04    CP:  7.48D-01  1.17D+00  4.20D-01  7.19D-01
 E= -818.646015743251     Delta-E=       -0.012575182355 Rises=F Damp=F
 DIIS: error= 1.06D-03 at cycle   5 NSaved=   5.
 NSaved= 5 IEnMin= 5 EnMin= -818.646015743251     IErMin= 5 ErrMin= 1.06D-03
 ErrMax= 1.06D-03  0.00D+00 EMaxC= 1.00D-01 BMatC= 1.44D-03 BMatP= 1.55D-02
 IDIUse=3 WtCom= 9.89D-01 WtEn= 1.06D-02
 Coeff-Com: -0.269D-01 0.624D-01 0.824D-01 0.297D+00 0.585D+00
 Coeff-En:   0.000D+00 0.000D+00 0.000D+00 0.434D-01 0.957D+00
 Coeff:     -0.266D-01 0.617D-01 0.815D-01 0.295D+00 0.589D+00
 Gap=     0.138 Goal=   None    Shift=    0.000
 RMSDP=5.17D-04 MaxDP=3.40D-02 DE=-1.26D-02 OVMax= 1.67D-02

 Cycle   6  Pass 1  IDiag  1:
 RMSU=  2.68D-04    CP:  7.50D-01  1.14D+00  4.16D-01  7.57D-01  6.18D-01
 E= -818.647010932616     Delta-E=       -0.000995189365 Rises=F Damp=F
 DIIS: error= 4.47D-04 at cycle   6 NSaved=   6.
 NSaved= 6 IEnMin= 6 EnMin= -818.647010932616     IErMin= 6 ErrMin= 4.47D-04
 ErrMax= 4.47D-04  0.00D+00 EMaxC= 1.00D-01 BMatC= 2.47D-04 BMatP= 1.44D-03
 IDIUse=3 WtCom= 9.96D-01 WtEn= 4.47D-03
 Coeff-Com:  0.417D-02-0.851D-02 0.110D-01 0.122D+00 0.372D+00 0.500D+00
 Coeff-En:   0.000D+00 0.000D+00 0.000D+00 0.000D+00 0.146D+00 0.854D+00
 Coeff:      0.415D-02-0.848D-02 0.109D-01 0.121D+00 0.371D+00 0.502D+00
 Gap=     0.138 Goal=   None    Shift=    0.000
 RMSDP=1.74D-04 MaxDP=1.35D-02 DE=-9.95D-04 OVMax= 4.74D-03

 Cycle   7  Pass 1  IDiag  1:
 RMSU=  9.25D-05    CP:  7.50D-01  1.14D+00  4.19D-01  7.59D-01  7.30D-01
                    CP:  6.60D-01
 E= -818.647219176119     Delta-E=       -0.000208243503 Rises=F Damp=F
 DIIS: error= 8.93D-05 at cycle   7 NSaved=   7.
 NSaved= 7 IEnMin= 7 EnMin= -818.647219176119     IErMin= 7 ErrMin= 8.93D-05
 ErrMax= 8.93D-05  0.00D+00 EMaxC= 1.00D-01 BMatC= 8.30D-06 BMatP= 2.47D-04
 IDIUse=1 WtCom= 1.00D+00 WtEn= 0.00D+00
 Coeff-Com:  0.352D-02-0.741D-02-0.524D-03 0.367D-01 0.126D+00 0.230D+00
 Coeff-Com:  0.612D+00
 Coeff:      0.352D-02-0.741D-02-0.524D-03 0.367D-01 0.126D+00 0.230D+00
 Coeff:      0.612D+00
 Gap=     0.138 Goal=   None    Shift=    0.000
 RMSDP=4.66D-05 MaxDP=6.89D-03 DE=-2.08D-04 OVMax= 1.07D-03

 Cycle   8  Pass 1  IDiag  1:
 RMSU=  2.16D-05    CP:  7.50D-01  1.14D+00  4.19D-01  7.64D-01  7.16D-01
                    CP:  6.80D-01  7.41D-01
 E= -818.647224740789     Delta-E=       -0.000005564670 Rises=F Damp=F
 DIIS: error= 4.43D-05 at cycle   8 NSaved=   8.
 NSaved= 8 IEnMin= 8 EnMin= -818.647224740789     IErMin= 8 ErrMin= 4.43D-05
 ErrMax= 4.43D-05  0.00D+00 EMaxC= 1.00D-01 BMatC= 1.88D-06 BMatP= 8.30D-06
 IDIUse=1 WtCom= 1.00D+00 WtEn= 0.00D+00
 Coeff-Com:  0.131D-02-0.275D-02-0.108D-02 0.923D-02 0.334D-01 0.813D-01
 Coeff-Com:  0.378D+00 0.500D+00
 Coeff:      0.131D-02-0.275D-02-0.108D-02 0.923D-02 0.334D-01 0.813D-01
 Coeff:      0.378D+00 0.500D+00
 Gap=     0.138 Goal=   None    Shift=    0.000
 RMSDP=1.61D-05 MaxDP=1.06D-03 DE=-5.56D-06 OVMax= 4.66D-04

 Cycle   9  Pass 1  IDiag  1:
 RMSU=  8.00D-06    CP:  7.50D-01  1.14D+00  4.17D-01  7.64D-01  7.19D-01
                    CP:  6.89D-01  8.21D-01  6.90D-01
 E= -818.647226283443     Delta-E=       -0.000001542654 Rises=F Damp=F
 DIIS: error= 8.71D-06 at cycle   9 NSaved=   9.
 NSaved= 9 IEnMin= 9 EnMin= -818.647226283443     IErMin= 9 ErrMin= 8.71D-06
 ErrMax= 8.71D-06  0.00D+00 EMaxC= 1.00D-01 BMatC= 8.15D-08 BMatP= 1.88D-06
 IDIUse=1 WtCom= 1.00D+00 WtEn= 0.00D+00
 Coeff-Com:  0.275D-03-0.580D-03-0.446D-03 0.102D-02 0.395D-02 0.178D-01
 Coeff-Com:  0.127D+00 0.234D+00 0.617D+00
 Coeff:      0.275D-03-0.580D-03-0.446D-03 0.102D-02 0.395D-02 0.178D-01
 Coeff:      0.127D+00 0.234D+00 0.617D+00
 Gap=     0.138 Goal=   None    Shift=    0.000
 RMSDP=4.35D-06 MaxDP=2.92D-04 DE=-1.54D-06 OVMax= 1.56D-04

 Cycle  10  Pass 1  IDiag  1:
 RMSU=  3.03D-06    CP:  7.50D-01  1.14D+00  4.18D-01  7.64D-01  7.19D-01
                    CP:  6.92D-01  8.09D-01  7.30D-01  7.64D-01
 E= -818.647226344312     Delta-E=       -0.000000060869 Rises=F Damp=F
 DIIS: error= 4.25D-06 at cycle  10 NSaved=  10.
 NSaved=10 IEnMin=10 EnMin= -818.647226344312     IErMin=10 ErrMin= 4.25D-06
 ErrMax= 4.25D-06  0.00D+00 EMaxC= 1.00D-01 BMatC= 2.08D-08 BMatP= 8.15D-08
 IDIUse=1 WtCom= 1.00D+00 WtEn= 0.00D+00
 Coeff-Com:  0.265D-04-0.553D-04-0.133D-03-0.361D-03-0.123D-02 0.214D-02
 Coeff-Com:  0.349D-01 0.831D-01 0.376D+00 0.506D+00
 Coeff:      0.265D-04-0.553D-04-0.133D-03-0.361D-03-0.123D-02 0.214D-02
 Coeff:      0.349D-01 0.831D-01 0.376D+00 0.506D+00
 Gap=     0.138 Goal=   None    Shift=    0.000
 RMSDP=1.88D-06 MaxDP=1.14D-04 DE=-6.09D-08 OVMax= 4.42D-05

 Cycle  11  Pass 1  IDiag  1:
 RMSU=  9.12D-07    CP:  7.50D-01  1.14D+00  4.18D-01  7.64D-01  7.19D-01
                    CP:  6.93D-01  8.16D-01  7.18D-01  8.11D-01  6.57D-01
 E= -818.647226363119     Delta-E=       -0.000000018807 Rises=F Damp=F
 DIIS: error= 1.17D-06 at cycle  11 NSaved=  11.
 NSaved=11 IEnMin=11 EnMin= -818.647226363119     IErMin=11 ErrMin= 1.17D-06
 ErrMax= 1.17D-06  0.00D+00 EMaxC= 1.00D-01 BMatC= 1.25D-09 BMatP= 2.08D-08
 IDIUse=1 WtCom= 1.00D+00 WtEn= 0.00D+00
 Coeff-Com: -0.221D-05 0.509D-05-0.263D-04-0.270D-03-0.951D-03-0.399D-03
 Coeff-Com:  0.464D-02 0.165D-01 0.123D+00 0.245D+00 0.612D+00
 Coeff:     -0.221D-05 0.509D-05-0.263D-04-0.270D-03-0.951D-03-0.399D-03
 Coeff:      0.464D-02 0.165D-01 0.123D+00 0.245D+00 0.612D+00
 Gap=     0.138 Goal=   None    Shift=    0.000
 RMSDP=5.31D-07 MaxDP=5.35D-05 DE=-1.88D-08 OVMax= 1.71D-05

 Cycle  12  Pass 1  IDiag  1:
 RMSU=  3.17D-07    CP:  7.50D-01  1.14D+00  4.18D-01  7.64D-01  7.19D-01
                    CP:  6.93D-01  8.15D-01  7.23D-01  8.04D-01  6.84D-01
                    CP:  8.91D-01
 E= -818.647226364169     Delta-E=       -0.000000001050 Rises=F Damp=F
 DIIS: error= 3.86D-07 at cycle  12 NSaved=  12.
 NSaved=12 IEnMin=12 EnMin= -818.647226364169     IErMin=12 ErrMin= 3.86D-07
 ErrMax= 3.86D-07  0.00D+00 EMaxC= 1.00D-01 BMatC= 2.19D-10 BMatP= 1.25D-09
 IDIUse=1 WtCom= 1.00D+00 WtEn= 0.00D+00
 Coeff-Com: -0.138D-05 0.188D-05 0.234D-05-0.100D-03-0.369D-03-0.517D-03
 Coeff-Com: -0.303D-02-0.418D-02 0.138D-01 0.588D-01 0.339D+00 0.597D+00
 Coeff:     -0.138D-05 0.188D-05 0.234D-05-0.100D-03-0.369D-03-0.517D-03
 Coeff:     -0.303D-02-0.418D-02 0.138D-01 0.588D-01 0.339D+00 0.597D+00
 Gap=     0.138 Goal=   None    Shift=    0.000
 RMSDP=3.35D-07 MaxDP=3.57D-05 DE=-1.05D-09 OVMax= 4.74D-06

 Cycle  13  Pass 1  IDiag  1:
 RMSU=  1.11D-07    CP:  7.50D-01  1.14D+00  4.18D-01  7.64D-01  7.19D-01
                    CP:  6.94D-01  8.16D-01  7.21D-01  8.17D-01  6.80D-01
                    CP:  8.62D-01  6.57D-01
 E= -818.647226364317     Delta-E=       -0.000000000148 Rises=F Damp=F
 DIIS: error= 1.33D-07 at cycle  13 NSaved=  13.
 NSaved=13 IEnMin=13 EnMin= -818.647226364317     IErMin=13 ErrMin= 1.33D-07
 ErrMax= 1.33D-07  0.00D+00 EMaxC= 1.00D-01 BMatC= 2.11D-11 BMatP= 2.19D-10
 IDIUse=1 WtCom= 1.00D+00 WtEn= 0.00D+00
 Coeff-Com: -0.233D-05 0.435D-05 0.567D-05-0.308D-04-0.138D-03-0.257D-03
 Coeff-Com: -0.199D-02-0.367D-02-0.202D-02 0.926D-02 0.121D+00 0.312D+00
 Coeff-Com:  0.566D+00
 Coeff:     -0.233D-05 0.435D-05 0.567D-05-0.308D-04-0.138D-03-0.257D-03
 Coeff:     -0.199D-02-0.367D-02-0.202D-02 0.926D-02 0.121D+00 0.312D+00
 Coeff:      0.566D+00
 Gap=     0.138 Goal=   None    Shift=    0.000
 RMSDP=7.54D-08 MaxDP=7.06D-06 DE=-1.48D-10 OVMax= 1.46D-06

 Cycle  14  Pass 1  IDiag  1:
 RMSU=  3.00D-08    CP:  7.50D-01  1.14D+00  4.18D-01  7.64D-01  7.19D-01
                    CP:  6.94D-01  8.16D-01  7.21D-01  8.18D-01  6.84D-01
                    CP:  8.84D-01  7.12D-01  9.07D-01
 E= -818.647226364399     Delta-E=       -0.000000000082 Rises=F Damp=F
 DIIS: error= 4.26D-08 at cycle  14 NSaved=  14.
 NSaved=14 IEnMin=14 EnMin= -818.647226364399     IErMin=14 ErrMin= 4.26D-08
 ErrMax= 4.26D-08  0.00D+00 EMaxC= 1.00D-01 BMatC= 2.39D-12 BMatP= 2.11D-11
 IDIUse=1 WtCom= 1.00D+00 WtEn= 0.00D+00
 Coeff-Com: -0.361D-06 0.575D-06 0.176D-05-0.326D-05-0.274D-04-0.634D-04
 Coeff-Com: -0.693D-03-0.159D-02-0.236D-02-0.188D-02 0.288D-01 0.105D+00
 Coeff-Com:  0.292D+00 0.581D+00
 Coeff:     -0.361D-06 0.575D-06 0.176D-05-0.326D-05-0.274D-04-0.634D-04
 Coeff:     -0.693D-03-0.159D-02-0.236D-02-0.188D-02 0.288D-01 0.105D+00
 Coeff:      0.292D+00 0.581D+00
 Gap=     0.138 Goal=   None    Shift=    0.000
 RMSDP=2.05D-08 MaxDP=2.90D-06 DE=-8.19D-11 OVMax= 5.76D-07

 Cycle  15  Pass 1  IDiag  1:
 RMSU=  1.25D-08    CP:  7.50D-01  1.14D+00  4.18D-01  7.64D-01  7.19D-01
                    CP:  6.94D-01  8.16D-01  7.21D-01  8.17D-01  6.83D-01
                    CP:  8.92D-01  7.23D-01  8.88D-01  7.76D-01
 E= -818.647226364385     Delta-E=        0.000000000014 Rises=F Damp=F
 DIIS: error= 1.87D-08 at cycle  15 NSaved=  15.
 NSaved=15 IEnMin=14 EnMin= -818.647226364399     IErMin=15 ErrMin= 1.87D-08
 ErrMax= 1.87D-08  0.00D+00 EMaxC= 1.00D-01 BMatC= 2.22D-13 BMatP= 2.39D-12
 IDIUse=1 WtCom= 1.00D+00 WtEn= 0.00D+00
 Coeff-Com: -0.541D-07 0.116D-06 0.300D-06 0.202D-05 0.791D-06-0.392D-05
 Coeff-Com: -0.105D-03-0.372D-03-0.696D-03-0.200D-02-0.656D-04 0.135D-01
 Coeff-Com:  0.610D-01 0.276D+00 0.653D+00
 Coeff:     -0.541D-07 0.116D-06 0.300D-06 0.202D-05 0.791D-06-0.392D-05
 Coeff:     -0.105D-03-0.372D-03-0.696D-03-0.200D-02-0.656D-04 0.135D-01
 Coeff:      0.610D-01 0.276D+00 0.653D+00
 Gap=     0.138 Goal=   None    Shift=    0.000
 RMSDP=8.26D-09 MaxDP=8.31D-07 DE= 1.41D-11 OVMax= 8.67D-08

 Error on total polarization charges =  0.01732
 SCF Done:  E(RN12SX) =  -818.647226364     A.U. after   15 cycles
            NFock= 15  Conv=0.83D-08     -V/T= 2.0035
 KE= 8.158271156614D+02 PE=-4.693993409455D+03 EE= 1.667645301457D+03
 Leave Link  502 at Wed Jun  2 12:08:55 2021, MaxMem=  3355443200 cpu:      5129.1
 (Enter /usr/local/gqt/g09/l601.exe)
 Copying SCF densities to generalized density rwf, IOpCl= 0 IROHF=0.

 **********************************************************************

            Population analysis using the SCF density.

 **********************************************************************

 Orbital symmetries:
       Occupied  (A) (A) (A) (A) (A) (A) (A) (A) (A) (A) (A) (A)
                 (A) (A) (A) (A) (A) (A) (A) (A) (A) (A) (A) (A)
                 (A) (A) (A) (A) (A) (A) (A) (A) (A) (A) (A) (A)
                 (A) (A) (A) (A) (A) (A) (A) (A) (A) (A) (A) (A)
                 (A) (A) (A) (A) (A) (A) (A) (A) (A) (A) (A) (A)
                 (A) (A) (A) (A) (A)
       Virtual   (A) (A) (A) (A) (A) (A) (A) (A) (A) (A) (A) (A)
                 (A) (A) (A) (A) (A) (A) (A) (A) (A) (A) (A) (A)
                 (A) (A) (A) (A) (A) (A) (A) (A) (A) (A) (A) (A)
                 (A) (A) (A) (A) (A) (A) (A) (A) (A) (A) (A) (A)
                 (A) (A) (A) (A) (A) (A) (A) (A) (A) (A) (A) (A)
                 (A) (A) (A) (A) (A) (A) (A) (A) (A) (A) (A) (A)
                 (A) (A) (A) (A) (A) (A) (A) (A) (A) (A) (A) (A)
                 (A) (A) (A) (A) (A) (A) (A) (A) (A) (A) (A) (A)
                 (A) (A) (A) (A) (A) (A) (A) (A) (A) (A) (A) (A)
                 (A) (A) (A) (A) (A) (A) (A) (A) (A) (A) (A) (A)
                 (A) (A) (A) (A) (A) (A) (A) (A) (A) (A) (A) (A)
                 (A) (A) (A) (A) (A) (A) (A) (A) (A) (A) (A) (A)
                 (A) (A) (A) (A) (A) (A) (A) (A) (A) (A) (A) (A)
                 (A) (A) (A) (A) (A) (A) (A) (A) (A) (A) (A) (A)
                 (A) (A) (A) (A) (A) (A) (A) (A) (A) (A) (A) (A)
                 (A) (A) (A) (A) (A) (A) (A) (A) (A) (A) (A) (A)
                 (A) (A) (A) (A) (A) (A) (A) (A) (A) (A) (A) (A)
                 (A) (A) (A) (A) (A) (A) (A) (A) (A) (A) (A) (A)
                 (A) (A) (A) (A) (A) (A) (A) (A) (A) (A) (A) (A)
                 (A) (A) (A) (A) (A) (A) (A) (A) (A) (A) (A) (A)
                 (A) (A) (A) (A) (A) (A) (A) (A) (A) (A) (A) (A)
                 (A) (A) (A) (A) (A) (A) (A) (A) (A) (A) (A) (A)
                 (A) (A) (A) (A) (A) (A) (A) (A) (A) (A) (A) (A)
                 (A) (A) (A) (A) (A) (A) (A) (A) (A) (A) (A) (A)
                 (A) (A) (A) (A) (A) (A) (A) (A) (A) (A) (A) (A)
                 (A) (A) (A) (A) (A) (A) (A) (A) (A) (A) (A) (A)
                 (A) (A) (A) (A) (A) (A) (A) (A) (A) (A) (A) (A)
                 (A) (A) (A) (A) (A) (A) (A) (A) (A) (A) (A) (A)
                 (A) (A) (A) (A) (A) (A) (A) (A) (A) (A) (A) (A)
                 (A) (A) (A) (A) (A) (A) (A) (A) (A) (A) (A) (A)
                 (A) (A) (A) (A) (A) (A) (A) (A) (A) (A) (A) (A)
                 (A) (A) (A) (A) (A) (A) (A) (A) (A) (A) (A) (A)
                 (A) (A) (A) (A) (A) (A) (A) (A) (A) (A) (A) (A)
                 (A) (A) (A) (A) (A) (A) (A) (A) (A) (A) (A) (A)
                 (A) (A) (A) (A) (A) (A) (A) (A) (A) (A) (A)
 The electronic state is 1-A.
 Alpha  occ. eigenvalues --  -19.21112 -19.20808 -14.45701 -14.38895 -14.36459
 Alpha  occ. eigenvalues --  -10.29686 -10.29676 -10.27131 -10.27070 -10.26702
 Alpha  occ. eigenvalues --  -10.26480 -10.26285 -10.25158 -10.23545 -10.23197
 Alpha  occ. eigenvalues --  -10.22692 -10.22512 -10.22486  -1.16887  -1.08373
 Alpha  occ. eigenvalues --   -1.08057  -0.99340  -0.90126  -0.85209  -0.82558
 Alpha  occ. eigenvalues --   -0.76347  -0.75961  -0.73058  -0.71180  -0.70249
 Alpha  occ. eigenvalues --   -0.67279  -0.63142  -0.60482  -0.59525  -0.57371
 Alpha  occ. eigenvalues --   -0.55162  -0.54174  -0.52179  -0.50841  -0.49794
 Alpha  occ. eigenvalues --   -0.49165  -0.47392  -0.47005  -0.46671  -0.45883
 Alpha  occ. eigenvalues --   -0.44448  -0.42658  -0.40796  -0.40263  -0.40076
 Alpha  occ. eigenvalues --   -0.39508  -0.38706  -0.37775  -0.34993  -0.34345
 Alpha  occ. eigenvalues --   -0.34253  -0.34195  -0.34118  -0.31210  -0.29826
 Alpha  occ. eigenvalues --   -0.27450  -0.25624  -0.22871  -0.22337  -0.19902
 Alpha virt. eigenvalues --   -0.06108  -0.03724  -0.00847  -0.00617   0.00005
 Alpha virt. eigenvalues --    0.00266   0.00992   0.01126   0.01756   0.02089
 Alpha virt. eigenvalues --    0.02373   0.03355   0.03568   0.04129   0.04172
 Alpha virt. eigenvalues --    0.04491   0.04645   0.05682   0.05993   0.06348
 Alpha virt. eigenvalues --    0.07176   0.07565   0.08221   0.08500   0.09008
 Alpha virt. eigenvalues --    0.09085   0.09681   0.10251   0.10754   0.11202
 Alpha virt. eigenvalues --    0.11337   0.11906   0.12409   0.13018   0.13157
 Alpha virt. eigenvalues --    0.13469   0.13696   0.14471   0.14622   0.15230
 Alpha virt. eigenvalues --    0.15429   0.15924   0.16487   0.16736   0.17161
 Alpha virt. eigenvalues --    0.17323   0.17584   0.18083   0.18114   0.18817
 Alpha virt. eigenvalues --    0.18971   0.19289   0.19413   0.19936   0.20229
 Alpha virt. eigenvalues --    0.20408   0.20602   0.21216   0.21394   0.21735
 Alpha virt. eigenvalues --    0.22047   0.22481   0.22863   0.23241   0.23450
 Alpha virt. eigenvalues --    0.23606   0.23975   0.24502   0.25233   0.25376
 Alpha virt. eigenvalues --    0.25847   0.26028   0.26633   0.27254   0.27335
 Alpha virt. eigenvalues --    0.27873   0.28440   0.28463   0.29036   0.29417
 Alpha virt. eigenvalues --    0.30668   0.31223   0.31558   0.32027   0.32273
 Alpha virt. eigenvalues --    0.33054   0.33352   0.34064   0.34668   0.35071
 Alpha virt. eigenvalues --    0.35852   0.36772   0.37342   0.37947   0.38493
 Alpha virt. eigenvalues --    0.39457   0.40258   0.40327   0.41059   0.41837
 Alpha virt. eigenvalues --    0.42761   0.43457   0.44044   0.45384   0.45901
 Alpha virt. eigenvalues --    0.46723   0.47110   0.47836   0.47934   0.48603
 Alpha virt. eigenvalues --    0.50463   0.51189   0.52055   0.53177   0.53305
 Alpha virt. eigenvalues --    0.54334   0.54504   0.55255   0.55947   0.56513
 Alpha virt. eigenvalues --    0.57074   0.57448   0.59328   0.60022   0.60770
 Alpha virt. eigenvalues --    0.61374   0.62163   0.62876   0.63353   0.64115
 Alpha virt. eigenvalues --    0.65188   0.65979   0.66510   0.66787   0.67309
 Alpha virt. eigenvalues --    0.67429   0.67675   0.68798   0.69337   0.69893
 Alpha virt. eigenvalues --    0.70197   0.71044   0.71807   0.72776   0.73569
 Alpha virt. eigenvalues --    0.74266   0.75025   0.75316   0.75742   0.76170
 Alpha virt. eigenvalues --    0.77178   0.77745   0.78735   0.79942   0.80257
 Alpha virt. eigenvalues --    0.81308   0.83818   0.85525   0.86738   0.87188
 Alpha virt. eigenvalues --    0.87976   0.89855   0.90375   0.90646   0.91130
 Alpha virt. eigenvalues --    0.92602   0.93297   0.94093   0.94576   0.95983
 Alpha virt. eigenvalues --    0.96335   0.97384   0.98458   0.99989   1.01033
 Alpha virt. eigenvalues --    1.02125   1.02513   1.03753   1.04180   1.05178
 Alpha virt. eigenvalues --    1.05439   1.06013   1.06754   1.08082   1.09359
 Alpha virt. eigenvalues --    1.10496   1.10758   1.12768   1.13255   1.14313
 Alpha virt. eigenvalues --    1.15900   1.17601   1.19066   1.22553   1.24308
 Alpha virt. eigenvalues --    1.26855   1.28654   1.29046   1.30399   1.31388
 Alpha virt. eigenvalues --    1.34324   1.35671   1.36897   1.37717   1.40128
 Alpha virt. eigenvalues --    1.41211   1.42968   1.43317   1.43541   1.45146
 Alpha virt. eigenvalues --    1.47402   1.49749   1.50904   1.50993   1.51437
 Alpha virt. eigenvalues --    1.52354   1.54044   1.54813   1.55286   1.55978
 Alpha virt. eigenvalues --    1.56671   1.57380   1.57880   1.58708   1.59007
 Alpha virt. eigenvalues --    1.59529   1.61433   1.61917   1.63644   1.64669
 Alpha virt. eigenvalues --    1.65603   1.66928   1.67866   1.68561   1.69221
 Alpha virt. eigenvalues --    1.70000   1.70275   1.71150   1.72740   1.73238
 Alpha virt. eigenvalues --    1.74559   1.74779   1.75562   1.77492   1.78566
 Alpha virt. eigenvalues --    1.78996   1.81700   1.83292   1.84733   1.85174
 Alpha virt. eigenvalues --    1.86774   1.87130   1.87753   1.88294   1.89822
 Alpha virt. eigenvalues --    1.90287   1.90544   1.91057   1.93069   1.93980
 Alpha virt. eigenvalues --    1.94956   1.95824   1.96066   1.99299   2.00880
 Alpha virt. eigenvalues --    2.01430   2.05198   2.06899   2.08387   2.09716
 Alpha virt. eigenvalues --    2.10418   2.10879   2.11478   2.12137   2.13731
 Alpha virt. eigenvalues --    2.15579   2.15788   2.16905   2.20585   2.20758
 Alpha virt. eigenvalues --    2.23553   2.25537   2.26614   2.27541   2.30723
 Alpha virt. eigenvalues --    2.31267   2.31741   2.33816   2.37323   2.38129
 Alpha virt. eigenvalues --    2.40031   2.42290   2.42749   2.43295   2.44985
 Alpha virt. eigenvalues --    2.45473   2.45910   2.46875   2.48660   2.49780
 Alpha virt. eigenvalues --    2.52976   2.54213   2.55749   2.57057   2.57643
 Alpha virt. eigenvalues --    2.58254   2.59493   2.62147   2.65254   2.65796
 Alpha virt. eigenvalues --    2.67570   2.68152   2.69364   2.70897   2.72236
 Alpha virt. eigenvalues --    2.73853   2.74595   2.75616   2.76514   2.78239
 Alpha virt. eigenvalues --    2.79375   2.80152   2.81476   2.81698   2.83331
 Alpha virt. eigenvalues --    2.84141   2.85100   2.85207   2.86083   2.87304
 Alpha virt. eigenvalues --    2.87720   2.88894   2.91411   2.93262   2.94671
 Alpha virt. eigenvalues --    2.95659   2.98283   2.99658   3.03549   3.06466
 Alpha virt. eigenvalues --    3.08072   3.09443   3.10319   3.11199   3.11751
 Alpha virt. eigenvalues --    3.12245   3.14057   3.15536   3.19318   3.24605
 Alpha virt. eigenvalues --    3.24958   3.26737   3.29263   3.33016   3.34112
 Alpha virt. eigenvalues --    3.36098   3.38552   3.41753   3.47568   3.48610
 Alpha virt. eigenvalues --    3.50390   3.53261   3.55090   3.58672   3.62517
 Alpha virt. eigenvalues --    3.64085   3.66988   3.71376   3.75827   3.77593
 Alpha virt. eigenvalues --    3.77751   3.80848   3.82019   3.83778   3.89413
 Alpha virt. eigenvalues --    3.99474   4.04052   4.08768   4.10519   4.10700
 Alpha virt. eigenvalues --    4.12852   4.16325   4.18855   4.21457   4.24154
 Alpha virt. eigenvalues --    4.24971   4.27826   4.34970   4.48301   4.77088
 Alpha virt. eigenvalues --    4.80309   4.87496   4.97971   4.99231   5.01442
 Alpha virt. eigenvalues --    5.08506   5.45746   5.50295   5.59325   5.77489
 Alpha virt. eigenvalues --    5.78223  23.53569  23.74423  23.76431  23.79359
 Alpha virt. eigenvalues --   23.79666  23.80243  23.83799  23.86440  23.88073
 Alpha virt. eigenvalues --   23.96233  24.01748  24.03249  24.08546  35.42191
 Alpha virt. eigenvalues --   35.55053  35.66028  49.69267  49.69541
          Condensed to atoms (all electrons):
               1          2          3          4          5          6
     1  N   11.098582  -0.609887   0.728938  -0.179926  -3.832120   0.102132
     2  C   -0.609887  13.264486  -2.095521  -0.299687  -0.017534  -2.895254
     3  N    0.728938  -2.095521   8.706487  -0.711850  -1.244483   0.572332
     4  C   -0.179926  -0.299687  -0.711850  10.228246   0.572666  -0.494213
     5  N   -3.832120  -0.017534  -1.244483   0.572666  12.427980  -0.023248
     6  C    0.102132  -2.895254   0.572332  -0.494213  -0.023248   8.310716
     7  C   -0.297765   1.321569  -0.596632   0.395216   0.552782  -1.386181
     8  C    0.259554  -1.301626   0.479749  -0.550239  -0.327139   0.984630
     9  C   -0.622662   0.015419   0.095536  -1.347491  -0.885555   0.544291
    10  C    0.498003  -0.318616   0.206151   0.026695  -0.595540  -0.099129
    11  C   -0.135947  -0.792474   0.246547   0.382393   0.797150   0.004786
    12  C   -0.007189   0.284083  -0.141604   0.122744  -0.038327  -0.067425
    13  C    0.496240  -0.117506   0.268316  -0.884062  -0.225844   0.050786
    14  C    0.050339  -0.040132   0.203867  -0.297176  -0.369373   0.004690
    15  O   -0.024956   0.074092  -0.028330  -0.323566   0.087429  -0.016623
    16  C   -0.005580  -0.013956   0.017904  -0.021840  -0.047921  -0.001319
    17  O   -0.400775   0.051198  -0.022785  -0.016753   0.113137  -0.000233
    18  C    0.000059   0.010057   0.009481  -0.048733  -0.113510   0.020050
    19  H    0.036046  -0.078163   0.021654  -0.001833  -0.033548   0.438803
    20  H   -0.040272  -0.096741   0.014740   0.005638   0.028535   0.497217
    21  H    0.007864  -0.038080   0.034674  -0.001706  -0.016055  -0.052785
    22  H   -0.000213   0.009035   0.010921  -0.006863  -0.004238  -0.020957
    23  H   -0.004588   0.029797  -0.057682   0.005269  -0.005977  -0.013733
    24  H    0.002933  -0.038836  -0.087872   0.067176   0.024512   0.018923
    25  H    0.003546   0.001498  -0.000091   0.001872  -0.002359  -0.000563
    26  H    0.000077   0.000018   0.000014  -0.000016   0.000703   0.000003
    27  H    0.000651   0.000893  -0.000198  -0.002202   0.000935  -0.000029
    28  H   -0.000705   0.000180  -0.000205   0.010880  -0.002499  -0.000066
    29  H    0.000200  -0.001183   0.000285  -0.008139  -0.000682   0.000281
    30  H    0.000147   0.000677  -0.000055  -0.006288   0.003208  -0.000166
    31  H    0.002136  -0.000365  -0.000042  -0.000395  -0.002536   0.000873
    32  H   -0.006520  -0.001939  -0.000017   0.000753   0.006113   0.000124
    33  H   -0.005468  -0.000783  -0.000083   0.000319   0.000581   0.000911
               7          8          9         10         11         12
     1  N   -0.297765   0.259554  -0.622662   0.498003  -0.135947  -0.007189
     2  C    1.321569  -1.301626   0.015419  -0.318616  -0.792474   0.284083
     3  N   -0.596632   0.479749   0.095536   0.206151   0.246547  -0.141604
     4  C    0.395216  -0.550239  -1.347491   0.026695   0.382393   0.122744
     5  N    0.552782  -0.327139  -0.885555  -0.595540   0.797150  -0.038327
     6  C   -1.386181   0.984630   0.544291  -0.099129   0.004786  -0.067425
     7  C    7.589372  -1.449509  -0.458056   0.082241   0.021984   0.041266
     8  C   -1.449509   6.987313   0.431193  -0.039205   0.010454  -0.042271
     9  C   -0.458056   0.431193  14.463145   1.305476  -6.904486   2.851920
    10  C    0.082241  -0.039205   1.305476  11.489712  -5.777605   0.683944
    11  C    0.021984   0.010454  -6.904486  -5.777605  19.854462  -5.394405
    12  C    0.041266  -0.042271   2.851920   0.683944  -5.394405  13.231178
    13  C   -0.027182  -0.049334  -5.450893  -0.711904   4.273210  -4.267649
    14  C   -0.024878  -0.044060   1.581002  -0.347283  -1.140721   0.191607
    15  O    0.008709   0.006610  -0.147158   0.003134  -0.015852   0.138111
    16  C   -0.003752   0.008130   0.095159  -0.053957   0.097642  -0.398759
    17  O    0.009941  -0.012955  -0.100868  -0.009629  -0.163621   0.126452
    18  C   -0.015157   0.006505   0.157580   0.197929  -0.438583  -0.372463
    19  H   -0.051230   0.005281  -0.004049   0.002880   0.001241  -0.000075
    20  H   -0.063435   0.018814   0.000568  -0.001849  -0.000967   0.000601
    21  H    0.510141  -0.094185  -0.000807   0.002002   0.002510  -0.001773
    22  H    0.394781  -0.012801   0.002778  -0.000609  -0.000061  -0.000071
    23  H   -0.073861   0.448161   0.003551  -0.000342   0.000115  -0.000233
    24  H   -0.052913   0.452005  -0.014431  -0.000518  -0.000956   0.002108
    25  H    0.000104  -0.000024   0.025430  -0.119024   0.505708  -0.012153
    26  H   -0.000013   0.000025  -0.011267  -0.013894   0.040581   0.326904
    27  H    0.000063  -0.000227   0.005190  -0.001167   0.008653  -0.037343
    28  H    0.000002  -0.000458   0.005952  -0.000340  -0.001062   0.008183
    29  H   -0.000664   0.001006  -0.010213  -0.001090   0.006835  -0.023045
    30  H    0.000254  -0.000033   0.004715   0.000836  -0.006105  -0.002676
    31  H   -0.000330   0.000148   0.008922   0.030122  -0.005520   0.006583
    32  H    0.000174  -0.000062   0.010742   0.053066  -0.038381  -0.022497
    33  H   -0.000522   0.000027  -0.007567  -0.022118   0.028514  -0.022956
              13         14         15         16         17         18
     1  N    0.496240   0.050339  -0.024956  -0.005580  -0.400775   0.000059
     2  C   -0.117506  -0.040132   0.074092  -0.013956   0.051198   0.010057
     3  N    0.268316   0.203867  -0.028330   0.017904  -0.022785   0.009481
     4  C   -0.884062  -0.297176  -0.323566  -0.021840  -0.016753  -0.048733
     5  N   -0.225844  -0.369373   0.087429  -0.047921   0.113137  -0.113510
     6  C    0.050786   0.004690  -0.016623  -0.001319  -0.000233   0.020050
     7  C   -0.027182  -0.024878   0.008709  -0.003752   0.009941  -0.015157
     8  C   -0.049334  -0.044060   0.006610   0.008130  -0.012955   0.006505
     9  C   -5.450893   1.581002  -0.147158   0.095159  -0.100868   0.157580
    10  C   -0.711904  -0.347283   0.003134  -0.053957  -0.009629   0.197929
    11  C    4.273210  -1.140721  -0.015852   0.097642  -0.163621  -0.438583
    12  C   -4.267649   0.191607   0.138111  -0.398759   0.126452  -0.372463
    13  C   17.674387  -5.021654  -0.205253  -0.357077   0.014506   0.091978
    14  C   -5.021654  11.013437   0.148314   0.209479   0.002775  -0.036197
    15  O   -0.205253   0.148314   8.359440   0.064988   0.001911  -0.000090
    16  C   -0.357077   0.209479   0.064988   5.421535   0.001282  -0.001274
    17  O    0.014506   0.002775   0.001911   0.001282   8.422738   0.120910
    18  C    0.091978  -0.036197  -0.000090  -0.001274   0.120910   5.419810
    19  H    0.000288   0.001671   0.000012   0.000020  -0.001060   0.000008
    20  H   -0.001068  -0.001931  -0.000015  -0.000043   0.003562  -0.000573
    21  H    0.003223   0.002991  -0.000274   0.000050   0.000259   0.000395
    22  H    0.000185   0.000509  -0.000015  -0.000002  -0.000058   0.000038
    23  H    0.001019   0.003367  -0.000511   0.000001   0.000063   0.000041
    24  H   -0.006851  -0.007481   0.001016  -0.000968  -0.000133  -0.000202
    25  H   -0.013609  -0.009624   0.000152  -0.000186  -0.022825  -0.012373
    26  H    0.024465  -0.020325  -0.000544   0.003206  -0.000616   0.002686
    27  H    0.581631  -0.176759  -0.024194  -0.012572   0.000187   0.000102
    28  H   -0.006364   0.030797  -0.062693   0.386508  -0.000007   0.000001
    29  H    0.033090  -0.025658  -0.043471   0.439376  -0.000019   0.000002
    30  H   -0.011986   0.013860  -0.049462   0.419294  -0.000019  -0.000022
    31  H   -0.001137   0.001090  -0.000006   0.000012  -0.059953   0.389069
    32  H   -0.003978  -0.002801  -0.000022  -0.000043  -0.058293   0.427469
    33  H    0.003205   0.001257   0.000007   0.000047  -0.047469   0.437686
              19         20         21         22         23         24
     1  N    0.036046  -0.040272   0.007864  -0.000213  -0.004588   0.002933
     2  C   -0.078163  -0.096741  -0.038080   0.009035   0.029797  -0.038836
     3  N    0.021654   0.014740   0.034674   0.010921  -0.057682  -0.087872
     4  C   -0.001833   0.005638  -0.001706  -0.006863   0.005269   0.067176
     5  N   -0.033548   0.028535  -0.016055  -0.004238  -0.005977   0.024512
     6  C    0.438803   0.497217  -0.052785  -0.020957  -0.013733   0.018923
     7  C   -0.051230  -0.063435   0.510141   0.394781  -0.073861  -0.052913
     8  C    0.005281   0.018814  -0.094185  -0.012801   0.448161   0.452005
     9  C   -0.004049   0.000568  -0.000807   0.002778   0.003551  -0.014431
    10  C    0.002880  -0.001849   0.002002  -0.000609  -0.000342  -0.000518
    11  C    0.001241  -0.000967   0.002510  -0.000061   0.000115  -0.000956
    12  C   -0.000075   0.000601  -0.001773  -0.000071  -0.000233   0.002108
    13  C    0.000288  -0.001068   0.003223   0.000185   0.001019  -0.006851
    14  C    0.001671  -0.001931   0.002991   0.000509   0.003367  -0.007481
    15  O    0.000012  -0.000015  -0.000274  -0.000015  -0.000511   0.001016
    16  C    0.000020  -0.000043   0.000050  -0.000002   0.000001  -0.000968
    17  O   -0.001060   0.003562   0.000259  -0.000058   0.000063  -0.000133
    18  C    0.000008  -0.000573   0.000395   0.000038   0.000041  -0.000202
    19  H    0.495829  -0.028191   0.005115  -0.009207   0.001218  -0.000502
    20  H   -0.028191   0.473739  -0.008720   0.001494  -0.000356  -0.000455
    21  H    0.005115  -0.008720   0.487215  -0.032010   0.007580  -0.016389
    22  H   -0.009207   0.001494  -0.032010   0.473661  -0.011303   0.002414
    23  H    0.001218  -0.000356   0.007580  -0.011303   0.514581  -0.026406
    24  H   -0.000502  -0.000455  -0.016389   0.002414  -0.026406   0.477710
    25  H    0.000000   0.000002  -0.000001   0.000000   0.000000   0.000000
    26  H    0.000000   0.000000   0.000000   0.000000   0.000000   0.000000
    27  H    0.000000   0.000000   0.000000   0.000000   0.000000   0.000002
    28  H    0.000000   0.000000   0.000000   0.000000   0.000000   0.000012
    29  H    0.000000   0.000000   0.000001   0.000000  -0.000001  -0.000028
    30  H    0.000000   0.000000   0.000000   0.000000   0.000000   0.000003
    31  H   -0.000003  -0.000002   0.000002   0.000000   0.000000   0.000000
    32  H    0.000000   0.000013   0.000000   0.000000   0.000000   0.000000
    33  H   -0.000001  -0.000021   0.000000   0.000000   0.000000   0.000001
              25         26         27         28         29         30
     1  N    0.003546   0.000077   0.000651  -0.000705   0.000200   0.000147
     2  C    0.001498   0.000018   0.000893   0.000180  -0.001183   0.000677
[...]
 136,0.00000330,-0.00000059,-0.00000073,0.00001522,-0.00003946,0.000000
 95,-0.00000921,0.00001274,-0.00000430,0.00037845,-0.00053312,0.0000388
 6,0.28327709,0.00005057,0.00000469,-0.00011580,0.00006109,-0.00001011,
 -0.00001241,0.00015143,-0.00002914,0.00006550,-0.00008346,0.00000155,0
 .00012087,-0.00001851,0.00005774,-0.00005514,0.,-0.00000719,-0.0000063
 7,0.00000339,-0.00001067,0.00000307,-0.00004154,0.00000409,0.00002045,
 -0.00174275,-0.00084552,-0.00028574,0.00048881,0.00014250,0.00005586,-
 0.00009778,-0.00009617,-0.00001312,-0.00029317,0.00031940,-0.00001581,
 0.00063977,-0.00044916,0.00000512,0.00405564,-0.00318239,0.00014919,-0
 .03118104,-0.03452219,-0.00674182,-0.10732983,-0.10235654,-0.01696287,
 -0.00011319,-0.00045761,-0.00004818,0.00010789,0.00007237,0.00001964,0
 .00001065,-0.00000498,0.00000522,0.00000734,0.00000120,0.00000505,0.00
 000338,0.00000279,0.00000051,0.00000730,0.00000078,0.00000110,0.000011
 07,-0.00000586,-0.00000416,0.00000732,0.00000167,-0.00000512,-0.000020
 25,0.00001282,0.00000070,-0.00005817,-0.00004036,-0.00001408,-0.000159
 20,0.00050959,0.00005800,0.12361443,0.13067061,0.00000806,-0.00000801,
 -0.00002268,-0.00000114,-0.00000060,0.00000071,0.00002158,0.00000432,0
 .00000655,-0.00001921,0.00000079,0.00001478,0.00000738,-0.00000057,-0.
 00002826,0.00000052,-0.00000048,-0.00000074,0.00000114,-0.00000181,0.0
 0000004,-0.00000702,0.00000017,0.00000313,-0.00014000,-0.00008825,0.00
 025060,0.00000948,0.00002821,0.00003650,0.00000107,-0.00003168,-0.0000
 5624,-0.00000471,0.00001221,0.00014344,-0.00006917,-0.00002481,0.00026
 510,0.00045319,0.00006897,0.00043957,-0.00150042,-0.00221744,0.0000837
 8,-0.03526170,-0.01861460,-0.05671225,0.00000178,-0.00005804,-0.000030
 80,0.00001514,0.00001361,-0.00000981,0.00000115,-0.00000037,0.00000002
 ,0.00000084,-0.00000039,-0.00000014,0.00000009,0.00000026,0.00000032,0
 .00000084,0.00000015,0.,0.00000151,-0.00000062,-0.00000037,0.00000136,
 0.00000034,-0.00000104,0.00000218,-0.00000134,-0.00002120,-0.00001085,
 -0.00000587,0.00003991,0.00007634,0.00002421,-0.00035226,0.03844227,0.
 02179261,0.05281788,-0.00004569,-0.00002622,0.00012989,-0.00005551,-0.
 00001338,0.00000300,-0.00012802,0.00001315,-0.00005903,0.00010646,0.00
 003288,-0.00012415,0.00007362,0.00007489,0.00007599,0.00000478,0.00000
 911,0.00000718,-0.00000416,0.00000940,-0.00000303,0.00004691,-0.000008
 32,-0.00002075,0.00016229,-0.00011533,0.00010821,0.00050491,-0.0001036
 7,0.00007669,-0.00019717,0.00068942,0.00007905,-0.00026282,-0.00084744
 ,0.00022338,0.00059446,0.00070939,-0.00005139,-0.00103937,-0.00189625,
 -0.00139135,-0.00290435,0.00998104,0.00429143,-0.15060307,0.02090056,0
 .12748377,-0.00001156,0.00023501,0.00001645,-0.00006920,-0.00006572,-0
 .00001972,-0.00001273,0.00000518,-0.00000508,-0.00000791,-0.00000178,-
 0.00000457,-0.00000155,-0.00000235,0.00000029,-0.00000676,0.00000077,-
 0.00000080,-0.00001215,0.00000622,0.00000352,-0.00000795,-0.00000145,0
 .00000299,0.00000155,0.00001803,-0.00005822,0.00006191,0.00001867,-0.0
 0003192,-0.00063070,-0.00103292,-0.00108927,-0.01416564,0.00382439,0.0
 2186776,0.15946916,0.00000593,0.00008394,-0.00014818,0.00004828,0.0000
 2842,-0.00001363,0.00014621,-0.00000832,0.00006329,-0.00018438,-0.0000
 3658,0.00016964,-0.00019805,-0.00017579,-0.00027913,-0.00000683,-0.000
 01252,-0.00000369,0.00000257,-0.00001030,0.00000268,-0.00006069,0.0000
 0377,0.00002462,-0.00040820,-0.00165693,0.00034894,0.00084305,0.000530
 99,0.00045738,-0.00056284,0.00021191,-0.00008238,-0.00019729,-0.000456
 51,0.00029499,-0.00114432,0.00061163,0.00002191,0.00615189,0.00552598,
 -0.00039217,0.02404599,-0.02564101,-0.02979492,0.01621039,-0.05345523,
 -0.02272301,-0.00007928,-0.00028925,-0.00005654,0.00004561,0.00005754,
 -0.00002466,0.00001691,-0.00000643,0.00000648,0.00001088,0.00000091,0.
 00000581,0.00000331,0.00000282,0.00000064,0.00000890,-0.00000066,0.000
 00118,0.00001601,-0.00000794,-0.00000415,0.00000995,0.00000118,-0.0000
 0553,-0.00001145,0.00000754,-0.00004810,-0.00003738,-0.00002438,-0.000
 02460,-0.00084412,-0.00066334,-0.00114797,-0.00775336,0.00390844,0.012
 20590,-0.02960375,0.06814610,0.00002396,0.00001768,-0.00003596,-0.0000
 0280,0.00000218,0.00000950,0.00003481,-0.00000261,0.00000914,-0.000025
 75,-0.00000632,0.00003369,-0.00008177,0.00003618,-0.00001543,-0.000001
 09,-0.00000644,-0.00000126,0.00000095,-0.00000400,0.00000123,-0.000013
 13,0.00000060,0.00000547,-0.00022481,-0.00034678,-0.00024359,0.0001473
 2,0.00003047,0.00001154,-0.00007276,-0.00001957,-0.00004661,-0.0002414
 7,0.00031905,-0.00001076,0.00049547,-0.00051740,-0.00018038,0.00169959
 ,0.00104921,0.00084491,-0.00142539,-0.00619087,0.00440808,0.12723392,-
 0.02831741,-0.21564168,-0.00006527,0.00007462,0.00000475,-0.00001426,-
 0.00001734,0.00000111,0.00000473,-0.00000200,0.00000208,0.00000220,0.0
 0000048,0.00000134,0.00000012,0.00000082,-0.00000006,0.00000301,0.0000
 0071,0.00000035,0.00000382,-0.00000206,-0.00000183,0.00000197,0.000000
 17,-0.00000092,-0.00001449,0.00004296,0.00001376,-0.00000334,-0.000014
 10,0.00001358,-0.00082522,0.00007501,-0.00029710,-0.00424604,0.0017270
 2,0.00522806,-0.13987586,0.03509872,0.22503230,-0.00001808,0.00002213,
 0.00013280,-0.00003846,-0.00001572,0.00001268,-0.00013099,0.00001292,-
 0.00004848,0.00008994,0.00000193,-0.00011891,0.00003602,0.00006041,0.0
 0005682,0.00000434,0.00000468,0.00000606,-0.00000400,0.00000989,-0.000
 00280,0.00004506,-0.00000501,-0.00001922,0.00014648,-0.00014869,-0.000
 04021,0.00050393,-0.00010392,0.00003219,-0.00018610,0.00067004,0.00000
 799,-0.00024195,-0.00068425,-0.00040202,0.00065630,0.00054528,0.000333
 80,-0.00093900,-0.00189463,0.00066408,-0.00241052,0.00977709,-0.004877
 87,-0.09809702,0.03042754,-0.09672110,-0.00002575,0.00025337,0.0000196
 2,-0.00007243,-0.00006974,-0.00001136,-0.00001119,0.00000462,-0.000004
 24,-0.00000725,-0.00000125,-0.00000341,-0.00000110,-0.00000237,-0.0000
 0042,-0.00000654,0.00000044,-0.00000087,-0.00001163,0.00000585,0.00000
 347,-0.00000864,-0.00000165,0.00000324,-0.00001397,0.00001876,0.000052
 71,0.00005306,0.00000899,0.00004105,-0.00083871,-0.00099522,0.00072840
 ,-0.00925323,0.00814472,-0.02389323,0.00911173,-0.00644539,0.01747373,
 0.10163909,0.00002042,-0.00002172,-0.00020517,0.00002016,0.00003223,-0
 .00000711,0.00016761,-0.00000931,0.00006435,-0.00017542,0.00002798,0.0
 0016413,-0.00021182,-0.00012782,0.00006839,-0.00000767,-0.00001911,-0.
 00000794,0.00000279,-0.00000965,0.00000442,-0.00006276,0.00000508,0.00
 002133,-0.00038503,-0.00159540,-0.00072504,0.00093954,0.00060445,-0.00
 017360,-0.00059446,0.00020518,-0.00000296,-0.00016740,-0.00034615,-0.0
 0039246,-0.00102804,0.00053087,-0.00019429,0.00601229,0.00529835,0.002
 69888,0.01700612,-0.03148345,0.02814516,0.02712654,-0.06882258,0.05918
 712,-0.00009032,-0.00027903,-0.00000713,0.00003531,0.00004748,0.000041
 71,0.00001753,-0.00000682,0.00000718,0.00000971,0.00000270,0.00000509,
 0.00000220,0.00000335,0.,0.00000875,-0.00000128,0.00000044,0.00001758,
 -0.00000849,-0.00000539,0.00001178,0.00000240,-0.00000415,-0.00002382,
 0.00000811,0.00004438,-0.00004152,-0.00002989,0.00000970,-0.00102270,-
 0.00075152,0.00076652,-0.00513174,0.00635179,-0.01309257,-0.00281903,0
 .00337086,-0.00302593,-0.03961018,0.08706847,-0.00002655,-0.00000174,0
 .00002900,-0.00000503,-0.00000859,-0.00000661,-0.00004036,0.00001405,0
 .00000498,0.00002746,-0.00001774,-0.00004811,0.00005603,-0.00004620,0.
 00004681,-0.00000053,0.00000299,0.00000265,-0.00000213,0.00000364,-0.0
 0000109,0.00001281,0.00000119,-0.00000687,0.00023249,0.00007354,-0.000
 25570,0.00013805,0.00005316,-0.00004117,-0.00006755,0.00022419,-0.0000
 2524,0.00016688,-0.00055680,-0.00017748,-0.00052668,0.00077996,-0.0001
 4433,-0.00100589,-0.00067392,0.00085951,0.00280985,0.00207031,0.009846
 04,-0.09723514,0.06568289,-0.25277032,0.00004655,-0.00006815,0.0000086
 2,0.00000336,0.00000907,0.00001156,-0.00000341,0.00000177,-0.00000136,
 -0.00000160,-0.00000021,-0.00000084,-0.00000022,-0.00000064,-0.0000001
 1,-0.00000271,-0.00000046,-0.00000028,-0.00000387,0.00000247,0.0000014
 3,-0.00000183,-0.00000026,0.00000170,0.00000458,-0.00004091,0.00002817
 ,0.00000503,0.00000862,0.00002805,0.00049064,-0.00044543,0.00023791,0.
 00000183,0.00025993,-0.00209409,-0.01164168,0.00605076,-0.01914488,0.1
 0657492,-0.07337495,0.26361604,-0.00002775,0.00000756,0.00000303,-0.00
 001972,-0.00000811,-0.00000077,-0.00003353,0.00000341,-0.00001253,0.00
 000150,0.00001546,-0.00001230,0.00005967,0.00010364,0.00002899,-0.0000
 0143,-0.00000273,0.00000170,-0.00000243,0.00000184,0.00000033,0.000004
 93,-0.00000242,-0.00000442,0.00076100,-0.00091280,-0.00003569,-0.00257
 891,-0.00355172,-0.00065064,-0.00112726,0.00000354,-0.00015833,0.00045
 750,-0.00001480,0.00003860,0.00013138,0.00011119,0.00002640,-0.0004318
 3,0.00013169,-0.00003552,0.00008327,-0.00009896,0.00000263,-0.00001925
 ,-0.00000798,-0.00000068,0.01169052,-0.03080999,-0.00140593,-0.1479355
 2,0.14610160,0.00169885,-0.00000063,0.00000114,-0.00000077,-0.00000061
 ,0.00000049,-0.00000096,0.00000005,-0.00000019,-0.00000037,-0.00000127
 ,-0.00000038,-0.00000048,-0.00000036,0.00000116,0.00000089,-0.00000132
 ,-0.00000032,0.00000022,0.00065972,0.00044774,0.00014827,0.00000285,-0
 .00003313,-0.00000665,0.00003795,0.00002593,0.00000912,0.00000251,-0.0
 0000980,-0.00000076,-0.00000142,-0.00000332,-0.00000040,-0.00000124,-0
 .00000305,-0.00000036,0.15462922,-0.00003936,0.00000019,0.00012952,-0.
 00006111,0.00000313,0.00001270,-0.00014873,0.00004152,-0.00006474,0.00
 009430,-0.00000862,-0.00012638,0.00001075,-0.00001530,0.00006256,-0.00
 000040,0.00000161,0.00000744,-0.00000671,0.00001060,-0.00000307,0.0000
 4353,-0.00000927,-0.00002313,0.00094496,-0.00126314,-0.00003622,-0.004
 29151,0.00071261,-0.00048461,-0.00027793,-0.00011452,-0.00005962,0.000
 21894,0.00017536,0.00002367,-0.00001830,-0.00020094,-0.00001549,-0.000
 19998,0.00032127,0.00001073,-0.00015147,-0.00046257,-0.00005771,-0.000
 06188,0.00013106,0.00000616,0.00815435,-0.03473141,-0.00214818,0.13206
 394,-0.23264796,-0.00082975,-0.00001188,0.00000480,-0.00000585,-0.0000
 0794,-0.00000063,-0.00000441,-0.00000091,-0.00000208,0.00000002,-0.000
 00770,-0.00000066,-0.00000141,-0.00001183,0.00000657,0.00000486,-0.000
 00814,-0.00000093,0.00000379,0.00006338,0.00020166,0.00005879,0.000037
 45,-0.00005304,-0.00000403,0.00000639,-0.00001086,0.00000152,-0.000005
 40,-0.00002867,-0.00000327,0.00001677,-0.00001635,-0.00000156,0.000016
 71,-0.00001663,0.00000251,-0.13790667,0.26514956,-0.00000066,0.0000090
 4,0.00000611,-0.00001281,0.00000466,0.00000322,-0.00001629,-0.00000322
 ,-0.00001059,0.00000419,0.00000242,-0.00001399,0.00001403,0.00000540,-
 0.00001418,0.00000040,-0.00000132,0.00000075,-0.00000181,0.00000118,-0
 .00000098,0.00000305,-0.00000053,-0.00000329,0.00014367,-0.00024419,0.
 00026814,-0.00071794,-0.00038167,0.00026383,-0.00018537,-0.00003305,0.
 00025472,0.00005489,-0.00000523,0.00014787,0.00002326,0.00000178,-0.00
 005128,-0.00007427,0.00004221,0.00002991,0.00000033,-0.00004862,-0.000
 03059,-0.00000641,0.00001151,-0.00001225,0.00200805,-0.00666252,0.0000
 9937,0.00047123,0.00078545,-0.05091046,-0.00000164,0.00000107,-0.00000
 094,-0.00000107,0.,-0.00000059,-0.00000018,-0.00000030,-0.00000028,-0.
 00000101,-0.00000007,0.00000013,0.,0.00000018,0.00000122,-0.00000062,0
 .00000027,0.00000089,0.00012107,0.00010228,-0.00034308,-0.00000101,-0.
 00001218,0.00004068,0.00000717,0.00000386,-0.00002021,-0.00000032,-0.0
 0000364,0.00000043,0.00000249,-0.00000187,-0.00000002,0.00000031,-0.00
 000228,-0.00000036,0.00030280,0.00342160,0.04683874,-0.00003600,-0.000
 05509,0.00020254,-0.00003518,0.00001426,0.00002086,-0.00018205,0.00006
 116,-0.00006765,0.00016055,-0.00001074,-0.00017584,0.00006376,-0.00015
 189,-0.00000715,0.00000380,0.00000108,0.00000744,-0.00000701,0.0000138
 1,-0.00000557,0.00006628,-0.00001183,-0.00002874,0.00000761,-0.0006699
 8,0.00015544,-0.00132235,0.00507078,0.00039384,0.00085716,-0.00072425,
 0.00027878,0.00005807,0.00049073,-0.00007887,-0.00013751,-0.00048586,-
 0.00010236,0.00018850,0.00027568,0.00017648,-0.00014254,-0.00032258,-0
 .00005700,-0.00003458,0.00011642,-0.00000568,-0.01760186,-0.01162663,-
 0.02106816,-0.10382239,0.01559147,-0.10430434,-0.00001506,0.00000602,-
 0.00000592,-0.00001211,-0.00000228,-0.00000529,-0.00000267,-0.00000339
 ,0.00000011,-0.00000984,0.00000071,-0.00000074,-0.00001725,0.00000869,
 0.00000519,-0.00001212,-0.00000199,0.00000540,0.00006558,0.00044457,0.
 00048113,0.00004896,-0.00005384,0.00002262,-0.00001099,-0.00001878,0.0
 0002256,-0.00000953,-0.00001997,-0.00000362,0.00001657,-0.00001409,0.0
 0000364,0.00001502,-0.00001041,-0.00000271,-0.00667661,0.00206919,-0.0
 1597477,0.11715763,-0.00000827,-0.00002933,0.00011202,0.00000495,0.000
 00196,0.00000583,-0.00007597,0.00003050,-0.00003310,0.00011716,-0.0000
 0666,-0.00007937,0.00010817,-0.00012700,-0.00011717,0.00000133,-0.0000
 0175,0.00000294,-0.00000428,0.00000500,-0.00000435,0.00003161,-0.00000
 476,-0.00001160,-0.00046321,-0.00151514,0.00037572,-0.00242964,0.00580
 838,-0.00182075,0.00103104,0.00048007,0.00022393,-0.00014222,-0.000852
 76,0.00038027,0.00078545,0.00019190,0.00008519,-0.00076122,0.00086745,
 0.00029689,0.00001121,-0.00016002,-0.00003847,0.00000777,0.00001732,-0
 .00003010,-0.02170217,-0.00842299,-0.02825371,0.01926881,-0.05526039,0
 .03471149,-0.00000736,0.00000309,-0.00000262,-0.00000685,-0.00000143,-
 0.00000233,-0.00000118,-0.00000199,-0.00000019,-0.00000481,0.00000093,
 0.00000062,-0.00000699,0.00000365,0.00000272,-0.00000621,-0.00000051,0
 .00000315,0.00046192,-0.00098298,-0.00119714,0.00000303,-0.00001595,-0
 .00003646,0.00003008,0.00000940,-0.00006606,-0.00000002,-0.00000753,0.
 00000018,-0.00000542,-0.00002119,0.00000088,-0.00000192,-0.00001066,-0
 .00000054,0.01051441,-0.00053735,0.02328662,-0.00834387,0.05954355,-0.
 00002495,-0.00000351,0.00006671,-0.00000343,0.00001130,-0.00000180,-0.
 00007020,0.00000962,-0.00000773,0.00007174,0.00001340,-0.00007123,0.00
 009932,-0.00002902,0.00002752,-0.00000142,-0.00000280,0.00000298,-0.00
 000332,0.00000675,-0.00000187,0.00002149,-0.00000892,-0.00001110,0.000
 09384,-0.00048306,-0.00019308,-0.00130812,0.00239061,0.00069026,-0.000
 55190,-0.00036778,-0.00018382,0.00038580,0.00029206,0.00002083,0.00001
 326,-0.00014506,-0.00005903,-0.00006276,0.00010578,0.00001580,0.000073
 46,-0.00000768,0.00001048,-0.00000076,-0.00000496,0.00000226,-0.004601
 91,-0.00778117,0.00183771,-0.10684274,0.02897482,-0.25999097,-0.000004
 67,0.00000220,-0.00000190,-0.00000449,-0.00000014,-0.00000235,-0.00000
 040,-0.00000168,0.00000014,-0.00000415,-0.00000029,-0.00000059,-0.0000
 0496,0.00000346,0.00000148,-0.00000512,-0.00000047,0.00000241,0.000818
 52,-0.00007482,0.00008915,0.00000196,-0.00002197,0.00001955,0.00002747
 ,0.00003026,0.00002300,-0.00000179,-0.00000450,-0.00000088,-0.00000089
 ,-0.00000028,0.00000208,-0.00000208,-0.00000017,-0.00000418,0.00198192
 ,0.00021928,0.00219792,0.12142824,-0.02728072,0.27454405,-0.00001845,0
 .00003613,0.00020012,-0.00006191,0.00002298,0.00001425,-0.00017509,0.0
 0005985,-0.00007901,0.00016122,-0.00006828,-0.00020056,0.00007516,-0.0
 0022946,0.00014644,0.00000334,0.00000163,0.00000728,-0.00000676,0.0000
 1525,-0.00000540,0.00006789,-0.00001118,-0.00003169,0.00003529,-0.0006
 8806,-0.00019498,-0.00147686,0.00547166,-0.00001181,0.00073953,-0.0007
 7610,-0.00016363,0.00012039,0.00055366,0.00020587,-0.00017515,-0.00051
 882,-0.00001236,0.00022295,0.00027980,-0.00005897,-0.00012371,-0.00031
 744,-0.00003579,-0.00003668,0.00011195,0.00001553,-0.02139632,-0.01579
 926,0.01239018,-0.15949957,-0.00283081,0.12999901,-0.00001671,0.000007
 26,-0.00000631,-0.00001307,-0.00000225,-0.00000622,-0.00000179,-0.0000
 0387,-0.00000011,-0.00001034,0.00000046,-0.00000091,-0.00001655,0.0000
 0839,0.00000616,-0.00001210,-0.00000187,0.00000537,0.00007816,0.000649
 81,-0.00031642,0.00005387,-0.00005190,-0.00002768,0.00000256,-0.000006
 24,-0.00003485,-0.00000969,-0.00002052,-0.00000186,0.00001337,-0.00001
 113,0.00000461,0.00001680,-0.00001292,-0.00000223,-0.00966100,-0.00052
 279,0.01383925,0.01137815,0.00159465,-0.01151695,0.17974306,0.00003981
 ,0.00003571,0.00009673,-0.00001531,0.00000914,0.00001270,-0.00007598,0
 .00002919,-0.00003088,0.00011190,-0.00004511,-0.00010897,0.00008579,-0
 .00021317,0.00017730,0.00000104,-0.00000284,-0.00000036,-0.00000273,0.
 00000965,-0.00000090,0.00003331,-0.00000981,-0.00001512,-0.00036318,-0
 .00145408,-0.00065074,-0.00299859,0.00577520,0.00197981,0.00090337,0.0
 0040255,0.00013579,0.00002809,-0.00068578,-0.00051093,0.00074214,0.000
 15723,0.00011947,-0.00068794,0.00089185,-0.00028164,0.00002332,-0.0001
 6169,0.00000755,0.00000092,0.00001027,0.00003297,-0.02710748,-0.013476
 11,0.01935799,0.00153866,-0.05078716,0.00040220,-0.00000869,0.00000343
 ,-0.00000263,-0.00000658,0.00000015,-0.00000379,-0.00000002,-0.0000016
 2,0.00000042,-0.00000487,-0.00000011,-0.00000152,-0.00000915,0.0000046
 5,0.00000358,-0.00000659,-0.00000133,0.00000182,0.00045270,-0.00153954
 ,0.00114094,-0.00000339,-0.00002431,0.00002805,0.00001866,0.00000212,0
 .00006815,0.00000017,-0.00000794,-0.00000121,-0.00000186,-0.00000930,-
 0.00000237,-0.00000542,-0.00001978,-0.00000451,0.01589559,0.00336100,-
 0.02027882,-0.00163710,0.00099721,0.00415947,0.01305942,0.05675030,0.0
 0002100,-0.00000844,-0.00001090,-0.00000805,0.00000125,0.00001238,0.00
 000939,-0.00000206,-0.00000236,0.00000629,-0.00000362,0.00000262,-0.00
 006844,-0.00005195,0.00002655,0.00000173,0.00000626,-0.00000073,0.0000
 0224,-0.00000254,0.00000109,-0.00000278,0.00000291,0.00000129,-0.00012
 450,0.00010202,-0.00031067,0.00032233,-0.00030834,0.00095850,0.0009494
 0,0.00029699,-0.00006054,-0.00035643,-0.00030357,-0.00017362,0.0001008
 0,0.00006933,-0.00001121,-0.00002005,0.00011640,-0.00006896,-0.0000934
 8,-0.00008843,-0.00000848,-0.00000694,0.00002881,0.00001372,-0.0059005
 4,0.00139621,0.01081123,0.13316655,0.00527859,-0.20911813,-0.00000010,
 -0.00000067,-0.00000017,0.00000126,-0.00000047,0.00000099,0.00000004,0
 .00000030,0.00000031,0.00000123,0.00000030,0.00000023,0.00000038,-0.00
 000050,0.00000068,0.00000023,-0.00000019,-0.00000090,-0.00063275,-0.00
 004584,0.00002752,0.00000463,0.00000311,0.00002136,-0.00002892,-0.0000
 3493,0.00001860,-0.00000009,-0.00000108,-0.00000008,0.00000560,-0.0000
 0214,-0.00000248,0.00000234,-0.00000769,0.00000054,-0.00191620,-0.0000
 9568,0.00125918,0.01869015,-0.00051378,-0.01902382,-0.14412632,-0.0058
 3056,0.21563626\\-0.00002632,0.00002716,-0.00008492,0.00000234,-0.0000
 1283,-0.00000210,-0.00000886,0.00000096,0.00000389,0.00002703,0.000000
 46,-0.00002276,0.00004804,-0.00002053,0.00010915,0.00000480,0.00000712
 ,0.00000558,-0.00000434,-0.00000971,-0.00000562,0.00000331,0.00000922,
 0.00001094,-0.00003914,0.00000321,-0.00000310,0.00000143,-0.00000656,-
 0.00000548,0.00000097,0.00000521,0.00000174,-0.00000505,0.00000323,-0.
 00000030,-0.00000189,-0.00000723,0.00000092,0.00000627,0.00000576,-0.0
 0000211,-0.00000995,-0.00000309,-0.00000091,0.00000095,0.00000445,0.00
 000086,-0.00000075,0.00000942,0.00000516,-0.00000616,-0.00001199,-0.00
 000415,-0.00000083,-0.00000133,-0.00000298,0.00000124,-0.00000282,-0.0
 0000102,-0.00000382,0.00000250,-0.00000149,0.00000307,0.00000568,0.000
 00037,-0.00000201,-0.00000027,-0.00000022,0.00000158,-0.00000494,-0.00
 000513,0.00000196,-0.00000163,0.00000047,0.00000158,-0.00000222,0.0000
 0072,0.00000239,0.00000023,0.00000073,-0.00000173,-0.00000172,-0.00000
 107,0.00000016,-0.00000032,-0.00000104,-0.00000016,-0.00000038,0.00000
 053,0.00000064,0.00000253,0.00000097,0.00000116,0.00000081,0.00000224,
 0.00000208,-0.00000039,0.00000014\\\@


 GOOD SENSE ABOUT TRIVIALITIES IS BETTER THAN NONSENSE
 ABOUT THINGS THAT MATTER

                                       -- MAX BEERBOHM
 Job cpu time:       2 days  7 hours  7 minutes 28.9 seconds.
 File lengths (MBytes):  RWF=   1381 Int=      0 D2E=      0 Chk=     27 Scr=      1
 Normal termination of Gaussian 09 at Wed Jun  2 17:54:14 2021.
