 Entering Gaussian System, Link 0=g09
 Input=NHC18.gjf
 Output=NHC18.log
 Initial command:
 /usr/local/gqt/g09/l1.exe "/usr/local/gqt/lixogaussian/Gau-26198.inp" -scrdir="/usr/local/gqt/lixogaussian/"
 Entering Link 1 = /usr/local/gqt/g09/l1.exe PID=     26200.
  
 Copyright (c) 1988,1990,1992,1993,1995,1998,2003,2009,2013,
            Gaussian, Inc.  All Rights Reserved.
  
 This is part of the Gaussian(R) 09 program.  It is based on
 the Gaussian(R) 03 system (copyright 2003, Gaussian, Inc.),
 the Gaussian(R) 98 system (copyright 1998, Gaussian, Inc.),
 the Gaussian(R) 94 system (copyright 1995, Gaussian, Inc.),
 the Gaussian 92(TM) system (copyright 1992, Gaussian, Inc.),
 the Gaussian 90(TM) system (copyright 1990, Gaussian, Inc.),
 the Gaussian 88(TM) system (copyright 1988, Gaussian, Inc.),
 the Gaussian 86(TM) system (copyright 1986, Carnegie Mellon
 University), and the Gaussian 82(TM) system (copyright 1983,
 Carnegie Mellon University). Gaussian is a federally registered
 trademark of Gaussian, Inc.
  
 This software contains proprietary and confidential information,
 including trade secrets, belonging to Gaussian, Inc.
  
 This software is provided under written license and may be
 used, copied, transmitted, or stored only in accord with that
 written license.
  
 The following legend is applicable only to US Government
 contracts under FAR:
  
                    RESTRICTED RIGHTS LEGEND
  
 Use, reproduction and disclosure by the US Government is
 subject to restrictions as set forth in subparagraphs (a)
 and (c) of the Commercial Computer Software - Restricted
 Rights clause in FAR 52.227-19.
  
 Gaussian, Inc.
 340 Quinnipiac St., Bldg. 40, Wallingford CT 06492
  
  
 ---------------------------------------------------------------
 Warning -- This program may not be used in any manner that
 competes with the business of Gaussian, Inc. or will provide
 assistance to any competitor of Gaussian, Inc.  The licensee
 of this program is prohibited from giving any competitor of
 Gaussian, Inc. access to this program.  By using this program,
 the user acknowledges that Gaussian, Inc. is engaged in the
 business of creating and licensing software in the field of
 computational chemistry and represents and warrants to the
 licensee that it is not a competitor of Gaussian, Inc. and that
 it will not use this program in any manner prohibited above.
 ---------------------------------------------------------------
  

 Cite this work as:
 Gaussian 09, Revision D.01,
 M. J. Frisch, G. W. Trucks, H. B. Schlegel, G. E. Scuseria, 
 M. A. Robb, J. R. Cheeseman, G. Scalmani, V. Barone, B. Mennucci, 
 G. A. Petersson, H. Nakatsuji, M. Caricato, X. Li, H. P. Hratchian, 
 A. F. Izmaylov, J. Bloino, G. Zheng, J. L. Sonnenberg, M. Hada, 
 M. Ehara, K. Toyota, R. Fukuda, J. Hasegawa, M. Ishida, T. Nakajima, 
 Y. Honda, O. Kitao, H. Nakai, T. Vreven, J. A. Montgomery, Jr., 
 J. E. Peralta, F. Ogliaro, M. Bearpark, J. J. Heyd, E. Brothers, 
 K. N. Kudin, V. N. Staroverov, T. Keith, R. Kobayashi, J. Normand, 
 K. Raghavachari, A. Rendell, J. C. Burant, S. S. Iyengar, J. Tomasi, 
 M. Cossi, N. Rega, J. M. Millam, M. Klene, J. E. Knox, J. B. Cross, 
 V. Bakken, C. Adamo, J. Jaramillo, R. Gomperts, R. E. Stratmann, 
 O. Yazyev, A. J. Austin, R. Cammi, C. Pomelli, J. W. Ochterski, 
 R. L. Martin, K. Morokuma, V. G. Zakrzewski, G. A. Voth, 
 P. Salvador, J. J. Dannenberg, S. Dapprich, A. D. Daniels, 
 O. Farkas, J. B. Foresman, J. V. Ortiz, J. Cioslowski, 
 and D. J. Fox, Gaussian, Inc., Wallingford CT, 2013.
 
 ******************************************
 Gaussian 09:  ES64L-G09RevD.01 24-Apr-2013
                20-Jun-2021 
 ******************************************
 %nprocshared=16
 Will use up to   16 processors via shared memory.
 %mem=25GB
 %chk=NHC18.chk
 ----------------------------------------------------------
 #p opt freq n12sx/6-311+g(d,p) scrf=(iefpcm,solvent=water)
 ----------------------------------------------------------
 1/14=-1,18=20,19=15,26=3,38=1/1,3;
 2/9=110,12=2,17=6,18=5,40=1/2;
 3/5=4,6=6,7=111,11=2,16=1,25=1,30=1,70=2201,71=1,72=1,74=-69/1,2,3;
 4//1;
 5/5=2,38=5,53=1/2;
 6/7=2,8=2,9=2,10=2,28=1/1;
 7//1,2,3,16;
 1/14=-1,18=20,19=15,26=3/3(2);
 2/9=110/2;
 99//99;
 2/9=110/2;
 3/5=4,6=6,7=111,11=2,16=1,25=1,30=1,70=2205,71=1,72=1,74=-69/1,2,3;
 4/5=5,16=3,69=1/1;
 5/5=2,38=5,53=1/2;
 7//1,2,3,16;
 1/14=-1,18=20,19=15,26=3/3(-5);
 2/9=110/2;
 6/7=2,8=2,9=2,10=2,19=2,28=1/1;
 99/9=1/99;
 Leave Link    1 at Sun Jun 20 22:30:45 2021, MaxMem=  3355443200 cpu:         0.7
 (Enter /usr/local/gqt/g09/l101.exe)
 -----
 TITLE
 -----
 Symbolic Z-matrix:
 Charge =  0 Multiplicity = 1
 6                    -11.71578  -2.79784   1.43463 
 6                    -10.74258  -1.95593   2.28363 
 6                    -9.99936  -2.74807   3.38469 
 6                    -11.87813  -2.15106   5.13128 
 1                    -11.13716  -3.36953   0.69609 
 1                    -11.2896  -1.12268   2.73842 
 1                    -10.17408  -3.82059   3.24493 
 1                    -12.34737  -2.11353   0.85213 
 1                    -10.02174  -1.48792   1.60316 
 1                    -8.91617  -2.61799   3.27772 
 6                    -12.62134  -3.79866   2.17716 
 1                    -12.02433  -4.64566   2.53994 
 1                    -13.29535  -4.2273    1.42458 
 6                    -13.47617  -3.26693   3.34624 
 1                    -13.83048  -2.25028   3.1224 
 1                    -14.38008  -3.88717   3.39402 
 6                    -9.58775  -2.78539   6.06875 
 1                    -10.25286  -2.94507   6.92505 
 1                    -9.0877   -3.73739   5.85719 
 1                    -8.81759  -2.06961   6.378 
 6                    -12.61304  -4.44334   5.55702 
 1                    -12.90214  -4.29331   6.60345 
 1                    -13.19682  -5.28672   5.17097 
 1                    -11.55791  -4.73943   5.54529 
 7                    -10.48282  -2.26463   4.68602 
 7                    -12.6795  -3.28661   4.58149 
 
 NAtoms=     26 NQM=       26 NQMF=       0 NMMI=      0 NMMIF=      0
                NMic=       0 NMicF=      0.
                    Isotopes and Nuclear Properties:
 (Nuclear quadrupole moments (NQMom) in fm**2, nuclear magnetic moments (NMagM)
  in nuclear magnetons)

  Atom         1           2           3           4           5           6           7           8           9          10
 IAtWgt=          12          12          12          12           1           1           1           1           1           1
 AtmWgt=  12.0000000  12.0000000  12.0000000  12.0000000   1.0078250   1.0078250   1.0078250   1.0078250   1.0078250   1.0078250
 NucSpn=           0           0           0           0           1           1           1           1           1           1
 AtZEff=   0.0000000   0.0000000   0.0000000   0.0000000   0.0000000   0.0000000   0.0000000   0.0000000   0.0000000   0.0000000
 NQMom=    0.0000000   0.0000000   0.0000000   0.0000000   0.0000000   0.0000000   0.0000000   0.0000000   0.0000000   0.0000000
 NMagM=    0.0000000   0.0000000   0.0000000   0.0000000   2.7928460   2.7928460   2.7928460   2.7928460   2.7928460   2.7928460
 AtZNuc=   6.0000000   6.0000000   6.0000000   6.0000000   1.0000000   1.0000000   1.0000000   1.0000000   1.0000000   1.0000000

  Atom        11          12          13          14          15          16          17          18          19          20
 IAtWgt=          12           1           1          12           1           1          12           1           1           1
 AtmWgt=  12.0000000   1.0078250   1.0078250  12.0000000   1.0078250   1.0078250  12.0000000   1.0078250   1.0078250   1.0078250
 NucSpn=           0           1           1           0           1           1           0           1           1           1
 AtZEff=   0.0000000   0.0000000   0.0000000   0.0000000   0.0000000   0.0000000   0.0000000   0.0000000   0.0000000   0.0000000
 NQMom=    0.0000000   0.0000000   0.0000000   0.0000000   0.0000000   0.0000000   0.0000000   0.0000000   0.0000000   0.0000000
 NMagM=    0.0000000   2.7928460   2.7928460   0.0000000   2.7928460   2.7928460   0.0000000   2.7928460   2.7928460   2.7928460
 AtZNuc=   6.0000000   1.0000000   1.0000000   6.0000000   1.0000000   1.0000000   6.0000000   1.0000000   1.0000000   1.0000000

  Atom        21          22          23          24          25          26
 IAtWgt=          12           1           1           1          14          14
 AtmWgt=  12.0000000   1.0078250   1.0078250   1.0078250  14.0030740  14.0030740
 NucSpn=           0           1           1           1           2           2
 AtZEff=   0.0000000   0.0000000   0.0000000   0.0000000   0.0000000   0.0000000
 NQMom=    0.0000000   0.0000000   0.0000000   0.0000000   2.0440000   2.0440000
 NMagM=    0.0000000   2.7928460   2.7928460   2.7928460   0.4037610   0.4037610
 AtZNuc=   6.0000000   1.0000000   1.0000000   1.0000000   7.0000000   7.0000000
 Leave Link  101 at Sun Jun 20 22:30:45 2021, MaxMem=  3355443200 cpu:         6.8
 (Enter /usr/local/gqt/g09/l103.exe)

 GradGradGradGradGradGradGradGradGradGradGradGradGradGradGradGradGradGrad
 Berny optimization.
 Initialization pass.
                           ----------------------------
                           !    Initial Parameters    !
                           ! (Angstroms and Degrees)  !
 --------------------------                            --------------------------
 ! Name  Definition              Value          Derivative Info.                !
 --------------------------------------------------------------------------------
 ! R1    R(1,2)                  1.5417         estimate D2E/DX2                !
 ! R2    R(1,5)                  1.0987         estimate D2E/DX2                !
 ! R3    R(1,8)                  1.0984         estimate D2E/DX2                !
 ! R4    R(1,11)                 1.5405         estimate D2E/DX2                !
 ! R5    R(2,3)                  1.5467         estimate D2E/DX2                !
 ! R6    R(2,6)                  1.0956         estimate D2E/DX2                !
 ! R7    R(2,9)                  1.0962         estimate D2E/DX2                !
 ! R8    R(3,7)                  1.0956         estimate D2E/DX2                !
 ! R9    R(3,10)                 1.0962         estimate D2E/DX2                !
 ! R10   R(3,25)                 1.47           estimate D2E/DX2                !
 ! R11   R(4,25)                 1.469          estimate D2E/DX2                !
 ! R12   R(4,26)                 1.4946         estimate D2E/DX2                !
 ! R13   R(11,12)                1.0979         estimate D2E/DX2                !
 ! R14   R(11,13)                1.0975         estimate D2E/DX2                !
 ! R15   R(11,14)                1.5428         estimate D2E/DX2                !
 ! R16   R(14,15)                1.0996         estimate D2E/DX2                !
 ! R17   R(14,16)                1.0973         estimate D2E/DX2                !
 ! R18   R(14,26)                1.47           estimate D2E/DX2                !
 ! R19   R(17,18)                1.096          estimate D2E/DX2                !
 ! R20   R(17,19)                1.096          estimate D2E/DX2                !
 ! R21   R(17,20)                1.096          estimate D2E/DX2                !
 ! R22   R(17,25)                1.7275         estimate D2E/DX2                !
 ! R23   R(21,22)                1.096          estimate D2E/DX2                !
 ! R24   R(21,23)                1.096          estimate D2E/DX2                !
 ! R25   R(21,24)                1.096          estimate D2E/DX2                !
 ! R26   R(21,26)                1.5146         estimate D2E/DX2                !
 ! A1    A(2,1,5)              108.7779         estimate D2E/DX2                !
 ! A2    A(2,1,8)              108.3492         estimate D2E/DX2                !
 ! A3    A(2,1,11)             117.4155         estimate D2E/DX2                !
 ! A4    A(5,1,8)              105.6953         estimate D2E/DX2                !
 ! A5    A(5,1,11)             107.1903         estimate D2E/DX2                !
 ! A6    A(8,1,11)             108.8054         estimate D2E/DX2                !
 ! A7    A(1,2,3)              114.5627         estimate D2E/DX2                !
 ! A8    A(1,2,6)              109.1929         estimate D2E/DX2                !
 ! A9    A(1,2,9)              107.8428         estimate D2E/DX2                !
 ! A10   A(3,2,6)              109.5069         estimate D2E/DX2                !
 ! A11   A(3,2,9)              110.156          estimate D2E/DX2                !
 ! A12   A(6,2,9)              105.147          estimate D2E/DX2                !
 ! A13   A(2,3,7)              109.5069         estimate D2E/DX2                !
 ! A14   A(2,3,10)             110.156          estimate D2E/DX2                !
 ! A15   A(2,3,25)             107.6821         estimate D2E/DX2                !
 ! A16   A(7,3,10)             105.147          estimate D2E/DX2                !
 ! A17   A(7,3,25)             112.4833         estimate D2E/DX2                !
 ! A18   A(10,3,25)            111.8604         estimate D2E/DX2                !
 ! A19   A(25,4,26)            109.8174         estimate D2E/DX2                !
 ! A20   A(1,11,12)            109.9269         estimate D2E/DX2                !
 ! A21   A(1,11,13)            106.5134         estimate D2E/DX2                !
 ! A22   A(1,11,14)            117.8431         estimate D2E/DX2                !
 ! A23   A(12,11,13)           105.0245         estimate D2E/DX2                !
 ! A24   A(12,11,14)           108.4689         estimate D2E/DX2                !
 ! A25   A(13,11,14)           108.2987         estimate D2E/DX2                !
 ! A26   A(11,14,15)           110.0555         estimate D2E/DX2                !
 ! A27   A(11,14,16)           107.1346         estimate D2E/DX2                !
 ! A28   A(11,14,26)           109.3818         estimate D2E/DX2                !
 ! A29   A(15,14,16)           105.4278         estimate D2E/DX2                !
 ! A30   A(15,14,26)           110.98           estimate D2E/DX2                !
 ! A31   A(16,14,26)           113.7206         estimate D2E/DX2                !
 ! A32   A(18,17,19)           107.5275         estimate D2E/DX2                !
 ! A33   A(18,17,20)           107.5274         estimate D2E/DX2                !
 ! A34   A(18,17,25)           110.7852         estimate D2E/DX2                !
 ! A35   A(19,17,20)           107.5274         estimate D2E/DX2                !
 ! A36   A(19,17,25)           110.1052         estimate D2E/DX2                !
 ! A37   A(20,17,25)           113.1466         estimate D2E/DX2                !
 ! A38   A(22,21,23)           107.5275         estimate D2E/DX2                !
 ! A39   A(22,21,24)           107.5274         estimate D2E/DX2                !
 ! A40   A(22,21,26)           119.9239         estimate D2E/DX2                !
 ! A41   A(23,21,24)           107.5274         estimate D2E/DX2                !
 ! A42   A(23,21,26)           109.7217         estimate D2E/DX2                !
 ! A43   A(24,21,26)           103.9859         estimate D2E/DX2                !
 ! A44   A(3,25,4)             127.3103         estimate D2E/DX2                !
 ! A45   A(3,25,17)            116.0423         estimate D2E/DX2                !
 ! A46   A(4,25,17)            105.8325         estimate D2E/DX2                !
 ! A47   A(4,26,14)            126.1217         estimate D2E/DX2                !
 ! A48   A(4,26,21)            108.6496         estimate D2E/DX2                !
 ! A49   A(14,26,21)           125.1153         estimate D2E/DX2                !
 ! D1    D(5,1,2,3)            -78.2851         estimate D2E/DX2                !
 ! D2    D(5,1,2,6)            158.4953         estimate D2E/DX2                !
 ! D3    D(5,1,2,9)             44.748          estimate D2E/DX2                !
 ! D4    D(8,1,2,3)            167.2709         estimate D2E/DX2                !
 ! D5    D(8,1,2,6)             44.0513         estimate D2E/DX2                !
 ! D6    D(8,1,2,9)            -69.6959         estimate D2E/DX2                !
 ! D7    D(11,1,2,3)            43.5859         estimate D2E/DX2                !
 ! D8    D(11,1,2,6)           -79.6337         estimate D2E/DX2                !
 ! D9    D(11,1,2,9)           166.619          estimate D2E/DX2                !
 ! D10   D(2,1,11,12)          -71.7856         estimate D2E/DX2                !
 ! D11   D(2,1,11,13)          174.9434         estimate D2E/DX2                !
 ! D12   D(2,1,11,14)           53.1439         estimate D2E/DX2                !
 ! D13   D(5,1,11,12)           50.9013         estimate D2E/DX2                !
 ! D14   D(5,1,11,13)          -62.3696         estimate D2E/DX2                !
 ! D15   D(5,1,11,14)          175.8308         estimate D2E/DX2                !
 ! D16   D(8,1,11,12)          164.7604         estimate D2E/DX2                !
 ! D17   D(8,1,11,13)           51.4895         estimate D2E/DX2                !
 ! D18   D(8,1,11,14)          -70.3101         estimate D2E/DX2                !
 ! D19   D(1,2,3,7)              9.9824         estimate D2E/DX2                !
 ! D20   D(1,2,3,10)           125.1535         estimate D2E/DX2                !
 ! D21   D(1,2,3,25)          -112.6164         estimate D2E/DX2                !
 ! D22   D(6,2,3,7)            133.033          estimate D2E/DX2                !
 ! D23   D(6,2,3,10)          -111.7958         estimate D2E/DX2                !
 ! D24   D(6,2,3,25)            10.4343         estimate D2E/DX2                !
 ! D25   D(9,2,3,7)           -111.7958         estimate D2E/DX2                !
 ! D26   D(9,2,3,10)             3.3753         estimate D2E/DX2                !
 ! D27   D(9,2,3,25)           125.6054         estimate D2E/DX2                !
 ! D28   D(2,3,25,4)            52.2111         estimate D2E/DX2                !
 ! D29   D(2,3,25,17)         -168.836          estimate D2E/DX2                !
 ! D30   D(7,3,25,4)           -68.536          estimate D2E/DX2                !
 ! D31   D(7,3,25,17)           70.4169         estimate D2E/DX2                !
 ! D32   D(10,3,25,4)          173.3814         estimate D2E/DX2                !
 ! D33   D(10,3,25,17)         -47.6657         estimate D2E/DX2                !
 ! D34   D(26,4,25,3)           36.092          estimate D2E/DX2                !
 ! D35   D(26,4,25,17)        -106.0815         estimate D2E/DX2                !
 ! D36   D(25,4,26,14)         -94.6217         estimate D2E/DX2                !
 ! D37   D(25,4,26,21)          89.1054         estimate D2E/DX2                !
 ! D38   D(1,11,14,15)          36.2875         estimate D2E/DX2                !
 ! D39   D(1,11,14,16)         150.4233         estimate D2E/DX2                !
 ! D40   D(1,11,14,26)         -85.8859         estimate D2E/DX2                !
 ! D41   D(12,11,14,15)        161.9343         estimate D2E/DX2                !
 ! D42   D(12,11,14,16)        -83.9298         estimate D2E/DX2                !
 ! D43   D(12,11,14,26)         39.761          estimate D2E/DX2                !
 ! D44   D(13,11,14,15)        -84.5929         estimate D2E/DX2                !
 ! D45   D(13,11,14,16)         29.5429         estimate D2E/DX2                !
 ! D46   D(13,11,14,26)        153.2337         estimate D2E/DX2                !
 ! D47   D(11,14,26,4)          93.6028         estimate D2E/DX2                !
 ! D48   D(11,14,26,21)        -90.7153         estimate D2E/DX2                !
 ! D49   D(15,14,26,4)         -28.0146         estimate D2E/DX2                !
 ! D50   D(15,14,26,21)        147.6672         estimate D2E/DX2                !
 ! D51   D(16,14,26,4)        -146.6802         estimate D2E/DX2                !
 ! D52   D(16,14,26,21)         29.0017         estimate D2E/DX2                !
 ! D53   D(18,17,25,3)        -144.9367         estimate D2E/DX2                !
 ! D54   D(18,17,25,4)           2.1823         estimate D2E/DX2                !
 ! D55   D(19,17,25,3)         -26.1225         estimate D2E/DX2                !
 ! D56   D(19,17,25,4)         120.9966         estimate D2E/DX2                !
 ! D57   D(20,17,25,3)          94.2266         estimate D2E/DX2                !
 ! D58   D(20,17,25,4)        -118.6543         estimate D2E/DX2                !
 ! D59   D(22,21,26,4)          54.8034         estimate D2E/DX2                !
 ! D60   D(22,21,26,14)       -121.5162         estimate D2E/DX2                !
 ! D61   D(23,21,26,4)         179.9362         estimate D2E/DX2                !
 ! D62   D(23,21,26,14)          3.6166         estimate D2E/DX2                !
 ! D63   D(24,21,26,4)         -65.2932         estimate D2E/DX2                !
 ! D64   D(24,21,26,14)        118.3872         estimate D2E/DX2                !
 --------------------------------------------------------------------------------
 Trust Radius=3.00D-01 FncErr=1.00D-07 GrdErr=1.00D-06
 Number of steps in this run=    149 maximum allowed number of steps=    156.
 GradGradGradGradGradGradGradGradGradGradGradGradGradGradGradGradGradGrad

 Leave Link  103 at Sun Jun 20 22:30:45 2021, MaxMem=  3355443200 cpu:         0.1
 (Enter /usr/local/gqt/g09/l202.exe)
                          Input orientation:                          
 ---------------------------------------------------------------------
 Center     Atomic      Atomic             Coordinates (Angstroms)
 Number     Number       Type             X           Y           Z
 ---------------------------------------------------------------------
      1          6           0      -11.715776   -2.797837    1.434631
      2          6           0      -10.742577   -1.955928    2.283628
      3          6           0       -9.999359   -2.748069    3.384691
      4          6           0      -11.878127   -2.151056    5.131282
      5          1           0      -11.137163   -3.369528    0.696093
      6          1           0      -11.289597   -1.122681    2.738423
      7          1           0      -10.174084   -3.820593    3.244930
      8          1           0      -12.347372   -2.113528    0.852126
      9          1           0      -10.021740   -1.487924    1.603162
     10          1           0       -8.916167   -2.617990    3.277717
     11          6           0      -12.621345   -3.798662    2.177163
     12          1           0      -12.024334   -4.645660    2.539942
     13          1           0      -13.295352   -4.227304    1.424575
     14          6           0      -13.476166   -3.266931    3.346236
     15          1           0      -13.830482   -2.250282    3.122405
     16          1           0      -14.380080   -3.887171    3.394024
     17          6           0       -9.587749   -2.785387    6.068754
     18          1           0      -10.252861   -2.945071    6.925045
     19          1           0       -9.087702   -3.737386    5.857190
     20          1           0       -8.817593   -2.069613    6.378004
     21          6           0      -12.613041   -4.443343    5.557016
     22          1           0      -12.902142   -4.293314    6.603448
     23          1           0      -13.196821   -5.286715    5.170970
     24          1           0      -11.557909   -4.739430    5.545293
     25          7           0      -10.482823   -2.264634    4.686018
     26          7           0      -12.679504   -3.286613    4.581485
 ---------------------------------------------------------------------
                    Distance matrix (angstroms):
                    1          2          3          4          5
     1  C    0.000000
     2  C    1.541663   0.000000
     3  C    2.598326   1.546674   0.000000
     4  C    3.756316   3.071917   2.633775   0.000000
     5  H    1.098663   2.161998   2.984857   4.658820   0.000000
     6  H    2.165099   1.095614   2.173537   2.670149   3.040176
     7  H    2.588441   2.173537   1.095614   3.041289   2.761803
     8  H    1.098411   2.156248   3.511366   4.304971   1.751139
     9  H    2.148030   1.096207   2.182273   4.041478   2.367990
    10  H    3.356653   2.182273   1.096207   3.525185   3.487466
    11  C    1.540473   2.633775   3.071917   3.463206   2.140215
    12  H    2.175171   2.990528   2.900857   3.599926   2.411507
    13  H    2.130384   3.523320   4.110201   4.478728   2.433977
    14  C    2.640693   3.212534   3.515520   2.642971   3.536201
    15  H    2.760504   3.213308   3.872220   2.803056   3.793899
    16  H    3.482009   4.265455   4.526406   3.505985   4.250094
    17  C    5.099387   4.043366   2.715697   2.554812   5.622045
    18  H    5.683876   4.770846   3.554881   2.547457   6.305712
    19  H    5.229585   4.322332   2.814804   3.290875   5.565298
    20  H    5.776393   4.525749   3.288890   3.305725   6.273301
    21  C    4.528447   4.516739   3.797931   2.444571   5.192289
    22  H    5.510044   5.365439   4.601557   2.793770   6.234210
    23  H    4.727392   5.045215   4.456375   3.401895   5.286050
    24  H    4.548873   4.364757   3.326078   2.640762   5.056521
    25  N    3.517954   2.436031   1.470000   1.469024   4.191475
    26  N    3.327216   3.286723   2.984212   1.494647   4.181144
                    6          7          8          9         10
     6  H    0.000000
     7  H    2.963048   0.000000
     8  H    2.378820   3.655512   0.000000
     9  H    1.740598   2.856564   2.522697   0.000000
    10  H    2.856564   1.740598   4.232156   2.302928   0.000000
    11  C    3.041289   2.670149   2.161125   3.525185   4.041478
    12  H    3.604250   2.145034   3.060191   3.854768   3.783709
    13  H    3.922746   3.636127   2.386297   4.272310   5.020088
    14  C    3.122232   3.349710   2.970707   4.258666   4.606453
    15  H    2.806247   3.981223   2.715232   4.170828   4.930499
    16  H    4.198012   4.209165   3.706610   5.287599   5.610587
    17  C    4.092919   3.064216   5.939708   4.670468   2.875574
    18  H    4.682279   3.783648   6.477561   5.522602   3.898298
    19  H    4.627282   2.830380   6.189753   4.901966   2.817118
    20  H    4.500448   3.836946   6.557180   4.958574   3.149954
    21  C    4.552226   3.417904   5.256863   5.575150   4.711049
    22  H    5.252774   4.352632   6.175512   6.416369   5.454831
    23  H    5.185940   3.872478   5.426150   6.102558   5.387995
    24  H    4.585999   2.837411   5.435479   5.335963   4.076911
    25  N    2.397513   2.143144   4.265924   3.212457   2.136020
    26  N    3.164067   2.889402   3.923590   4.378287   4.038510
                   11         12         13         14         15
    11  C    0.000000
    12  H    1.097924   0.000000
    13  H    1.097455   1.741996   0.000000
    14  C    1.542786   2.158430   2.155873   0.000000
    15  H    2.180132   3.056022   2.660377   1.099644   0.000000
    16  H    2.140499   2.618072   2.273995   1.097288   1.747924
    17  C    5.037252   4.674406   6.115050   4.771140   5.193082
    18  H    5.374079   5.025858   6.415298   4.827129   5.267084
    19  H    5.102254   4.522489   6.131266   5.077878   5.673138
    20  H    5.924965   5.625827   7.017294   5.685728   5.980019
    21  C    3.440798   3.080624   4.193958   2.648863   3.495570
    22  H    4.462682   4.172143   5.194198   3.463004   4.141673
    23  H    3.392397   2.950930   3.894552   2.736278   3.717267
    24  H    3.655166   3.042775   4.501255   3.268611   4.151004
    25  N    3.636052   3.556851   4.732801   3.429245   3.694850
    26  N    2.458931   2.538534   3.351156   1.470000   2.127827
                   16         17         18         19         20
    16  H    0.000000
    17  C    5.597727   0.000000
    18  H    5.512677   1.095951   0.000000
    19  H    5.839426   1.095951   1.767958   0.000000
    20  H    6.568784   1.095951   1.767958   1.767957   0.000000
    21  C    2.847857   3.487561   3.112358   3.607838   4.551268
    22  H    3.556636   3.680346   2.989962   3.926310   4.656094
    23  H    2.552717   4.481971   4.150540   4.444793   5.566356
    24  H    3.649515   2.823796   2.612775   2.683895   3.915439
    25  N    4.414804   1.727513   2.351408   2.342436   2.381982
    26  N    2.159327   3.467296   3.390799   3.838185   4.429777
                   21         22         23         24         25
    21  C    0.000000
    22  H    1.095951   0.000000
    23  H    1.095951   1.767958   0.000000
    24  H    1.095951   1.767958   1.767957   0.000000
    25  N    3.169107   3.693939   4.090714   2.831745   0.000000
    26  N    1.514629   2.269658   2.148376   2.073060   2.425031
                   26
    26  N    0.000000
 Stoichiometry    C8H16N2
 Framework group  C1[X(C8H16N2)]
 Deg. of freedom    72
 Full point group                 C1      NOp   1
 Largest Abelian subgroup         C1      NOp   1
 Largest concise Abelian subgroup C1      NOp   1
                         Standard orientation:                         
 ---------------------------------------------------------------------
 Center     Atomic      Atomic             Coordinates (Angstroms)
 Number     Number       Type             X           Y           Z
 ---------------------------------------------------------------------
      1          6           0       -2.254625   -0.902242    0.159112
      2          6           0       -1.055887   -1.736487   -0.334637
      3          6           0        0.239283   -1.551847    0.490373
      4          6           0        1.038425    0.366100   -1.128152
      5          1           0       -2.690645   -1.395716    1.038561
      6          1           0       -0.857960   -1.496003   -1.385048
      7          1           0        0.016082   -0.981961    1.399097
      8          1           0       -3.035149   -0.927621   -0.613315
      9          1           0       -1.357147   -2.790484   -0.333947
     10          1           0        0.603716   -2.523405    0.843832
     11          6           0       -1.986609    0.564508    0.546244
     12          1           0       -1.423171    0.606081    1.487651
     13          1           0       -2.962636    1.009047    0.778977
     14          6           0       -1.278423    1.464689   -0.487358
     15          1           0       -1.609684    1.205100   -1.503279
     16          1           0       -1.630912    2.490000   -0.318449
     17          6           0        2.843757   -0.828532    0.228569
     18          1           0        3.334366    0.109660   -0.054640
     19          1           0        2.843735   -0.883668    1.323132
     20          1           0        3.465013   -1.651232   -0.143338
     21          6           0        1.064488    2.155049    0.537654
     22          1           0        1.893037    2.724627    0.101538
     23          1           0        0.449886    2.855595    1.114374
     24          1           0        1.494313    1.434945    1.243210
     25          7           0        1.223451   -0.877580   -0.368509
     26          7           0        0.177220    1.310096   -0.352803
 ---------------------------------------------------------------------
 Rotational constants (GHZ):      1.6553291      1.2324108      0.8205159
 Leave Link  202 at Sun Jun 20 22:30:45 2021, MaxMem=  3355443200 cpu:         0.0
 (Enter /usr/local/gqt/g09/l301.exe)
 Standard basis: 6-311+G(d,p) (5D, 7F)
 Ernie: Thresh=  0.10000D-02 Tol=  0.10000D-05 Strict=F.
 There are   326 symmetry adapted cartesian basis functions of A   symmetry.
 There are   316 symmetry adapted basis functions of A   symmetry.
   316 basis functions,   488 primitive gaussians,   326 cartesian basis functions
    39 alpha electrons       39 beta electrons
       nuclear repulsion energy       567.9467357396 Hartrees.
 IExCor= 5547 DFT=T Ex+Corr=N12SX ExCW=0 ScaHFX=  0.250000
 ScaDFX=  1.000000  1.000000  1.000000  1.000000 ScalE2=  1.000000  1.000000
 IRadAn=      0 IRanWt=     -1 IRanGd=            0 ICorTp=0 IEmpDi=  4
  HFx wShort=  0.110000 wLong=  0.000000 cFull=  0.000000 cShort=  1.000000 cLong=  0.000000
  DFx wShort=  0.110000 wLong=  0.000000 cFull=  0.000000 cShort=  1.000000 cLong=  0.000000
 NAtoms=   26 NActive=   26 NUniq=   26 SFac= 1.00D+00 NAtFMM=   60 NAOKFM=F Big=F
 Integral buffers will be    131072 words long.
 Raffenetti 2 integral format.
 Two-electron integral symmetry is turned on.
 ------------------------------------------------------------------------------
 Polarizable Continuum Model (PCM)
 =================================
 Model                : PCM (using non-symmetric T matrix).
 Atomic radii         : UFF (Universal Force Field).
 Polarization charges : Total charges.
 Charge compensation  : None.
 Solution method      : On-the-fly selection.
 Cavity type          : Scaled VdW (van der Waals Surface) (Alpha=1.100).
 Cavity algorithm     : GePol (No added spheres)
                        Default sphere list used, NSphG=   26.
                        Lebedev-Laikov grids with approx.  5.0 points / Ang**2.
                        Smoothing algorithm: Karplus/York (Gamma=1.0000).
                        Polarization charges: spherical gaussians, with
                                              point-specific exponents (IZeta= 3).
                        Self-potential: point-specific (ISelfS= 7).
                        Self-field    : sphere-specific E.n sum rule (ISelfD= 2).
 1st derivatives      : Analytical E(r).r(x)/FMM algorithm (CHGder, D1EAlg=3).
                        Cavity 1st derivative terms included.
 Solvent              : Water, Eps=  78.355300 Eps(inf)=   1.777849
 ------------------------------------------------------------------------------
 GePol: Number of generator spheres                  =      26
 GePol: Total number of spheres                      =      26
 GePol: Number of exposed spheres                    =      26 (100.00%)
 GePol: Number of points                             =    1725
 GePol: Average weight of points                     =       0.13
 GePol: Minimum weight of points                     =   0.10D-08
 GePol: Maximum weight of points                     =    0.20577
 GePol: Number of points with low weight             =     128
 GePol: Fraction of low-weight points (<1% of avg)   =       7.42%
 GePol: Cavity surface area                          =    230.095 Ang**2
 GePol: Cavity volume                                =    243.373 Ang**3
 Leave Link  301 at Sun Jun 20 22:30:45 2021, MaxMem=  3355443200 cpu:         0.7
 (Enter /usr/local/gqt/g09/l302.exe)
 NPDir=0 NMtPBC=     1 NCelOv=     1 NCel=       1 NClECP=     1 NCelD=      1
         NCelK=      1 NCelE2=     1 NClLst=     1 CellRange=     0.0.
 One-electron integrals computed using PRISM.
 NBasis=   316 RedAO= T EigKep=  1.55D-05  NBF=   316
 NBsUse=   316 1.00D-06 EigRej= -1.00D+00 NBFU=   316
 Precomputing XC quadrature grid using
 IXCGrd= 4 IRadAn=           0 IRanWt=          -1 IRanGd=           0 AccXCQ= 0.00D+00.
 Generated NRdTot=       0 NPtTot=           0 NUsed=           0 NTot=          32
 NSgBfM=   326   326   326   326   326 MxSgAt=    26 MxSgA2=    26.
 Leave Link  302 at Sun Jun 20 22:30:46 2021, MaxMem=  3355443200 cpu:         4.9
 (Enter /usr/local/gqt/g09/l303.exe)
 DipDrv:  MaxL=1.
 Leave Link  303 at Sun Jun 20 22:30:46 2021, MaxMem=  3355443200 cpu:         0.7
 (Enter /usr/local/gqt/g09/l401.exe)
 ExpMin= 4.38D-02 ExpMax= 6.29D+03 ExpMxC= 9.49D+02 IAcc=2 IRadAn=         4 AccDes= 0.00D+00
 Harris functional with IExCor= 5547 and IRadAn=       4 diagonalized for initial guess.
 HarFok:  IExCor= 5547 AccDes= 0.00D+00 IRadAn=         4 IDoV= 1 UseB2=F ITyADJ=14
 ICtDFT=  3500011 ScaDFX=  1.000000  1.000000  1.000000  1.000000
 FoFCou: FMM=F IPFlag=           0 FMFlag=      100000 FMFlg1=           0
         NFxFlg=           0 DoJE=T BraDBF=F KetDBF=T FulRan=T
         wScrn=  0.000000 ICntrl=     500 IOpCl=  0 I1Cent=   200000004 NGrid=           0
         NMat0=    1 NMatS0=      1 NMatT0=    0 NMatD0=    1 NMtDS0=    0 NMtDT0=    0
 Petite list used in FoFCou.
 Harris En= -410.090904248315    
 JPrj=0 DoOrth=F DoCkMO=F.
 Leave Link  401 at Sun Jun 20 22:30:47 2021, MaxMem=  3355443200 cpu:        17.1
 (Enter /usr/local/gqt/g09/l502.exe)
 Closed shell SCF:
 Using DIIS extrapolation, IDIIS=  1040.
 Integral symmetry usage will be decided dynamically.
 Keep R1 ints in memory in canonical form, NReq=2526485252.
 IVT=      345042 IEndB=      345042 NGot=  3355443200 MDV=   846440677
 LenX=   846440677 LenY=   846333960
 Requested convergence on RMS density matrix=1.00D-08 within 128 cycles.
 Requested convergence on MAX density matrix=1.00D-06.
 Requested convergence on             energy=1.00D-06.
 No special actions if energy rises.
 FoFCou: FMM=F IPFlag=           0 FMFlag=           0 FMFlg1=           0
         NFxFlg=           0 DoJE=F BraDBF=F KetDBF=F FulRan=T
         wScrn=  0.000000 ICntrl=     600 IOpCl=  0 I1Cent=           0 NGrid=           0
         NMat0=    1 NMatS0=  50086 NMatT0=    0 NMatD0=    1 NMtDS0=    0 NMtDT0=    0
 Symmetry not used in FoFCou.

 Cycle   1  Pass 1  IDiag  1:
 Inv3:  Mode=1 IEnd=     8926875.
 Iteration    1 A*A^-1 deviation from unit magnitude is 4.88D-15 for   1725.
 Iteration    1 A*A^-1 deviation from orthogonality  is 4.55D-15 for   1723    867.
 Iteration    1 A^-1*A deviation from unit magnitude is 4.88D-15 for   1725.
 Iteration    1 A^-1*A deviation from orthogonality  is 2.09D-13 for   1385   1367.
 E= -423.499549009587    
 DIIS: error= 6.01D-02 at cycle   1 NSaved=   1.
 NSaved= 1 IEnMin= 1 EnMin= -423.499549009587     IErMin= 1 ErrMin= 6.01D-02
 ErrMax= 6.01D-02  0.00D+00 EMaxC= 1.00D-01 BMatC= 1.07D+00 BMatP= 1.07D+00
 IDIUse=3 WtCom= 3.99D-01 WtEn= 6.01D-01
 Coeff-Com:  0.100D+01
 Coeff-En:   0.100D+01
 Coeff:      0.100D+01
 Gap=     0.073 Goal=   None    Shift=    0.000
 GapD=    0.073 DampG=0.500 DampE=0.500 DampFc=0.2500 IDamp=-1.
 Damping current iteration by 2.50D-01
 RMSDP=5.09D-03 MaxDP=4.14D-01              OVMax= 1.32D-01

 Cycle   2  Pass 1  IDiag  1:
 E= -423.552781156623     Delta-E=       -0.053232147037 Rises=F Damp=T
 DIIS: error= 4.30D-02 at cycle   2 NSaved=   2.
 NSaved= 2 IEnMin= 2 EnMin= -423.552781156623     IErMin= 2 ErrMin= 4.30D-02
 ErrMax= 4.30D-02  0.00D+00 EMaxC= 1.00D-01 BMatC= 5.38D-01 BMatP= 1.07D+00
 IDIUse=3 WtCom= 5.70D-01 WtEn= 4.30D-01
 Coeff-Com: -0.193D+01 0.293D+01
 Coeff-En:   0.000D+00 0.100D+01
 Coeff:     -0.110D+01 0.210D+01
 Gap=     0.096 Goal=   None    Shift=    0.000
 RMSDP=2.62D-03 MaxDP=1.75D-01 DE=-5.32D-02 OVMax= 2.59D-01

 Cycle   3  Pass 1  IDiag  1:
 E= -423.591958126541     Delta-E=       -0.039176969918 Rises=F Damp=F
 DIIS: error= 1.17D-02 at cycle   3 NSaved=   3.
 NSaved= 3 IEnMin= 3 EnMin= -423.591958126541     IErMin= 3 ErrMin= 1.17D-02
 ErrMax= 1.17D-02  0.00D+00 EMaxC= 1.00D-01 BMatC= 8.20D-02 BMatP= 5.38D-01
 IDIUse=3 WtCom= 8.83D-01 WtEn= 1.17D-01
 Coeff-Com: -0.102D+01 0.143D+01 0.586D+00
 Coeff-En:   0.000D+00 0.215D-01 0.979D+00
 Coeff:     -0.900D+00 0.127D+01 0.632D+00
 Gap=     0.077 Goal=   None    Shift=    0.000
 RMSDP=1.78D-03 MaxDP=6.92D-02 DE=-3.92D-02 OVMax= 1.66D-01

 Cycle   4  Pass 1  IDiag  1:
 E= -423.637919437562     Delta-E=       -0.045961311021 Rises=F Damp=F
 DIIS: error= 6.88D-03 at cycle   4 NSaved=   4.
 NSaved= 4 IEnMin= 4 EnMin= -423.637919437562     IErMin= 4 ErrMin= 6.88D-03
 ErrMax= 6.88D-03  0.00D+00 EMaxC= 1.00D-01 BMatC= 3.03D-02 BMatP= 8.20D-02
 IDIUse=3 WtCom= 9.31D-01 WtEn= 6.88D-02
 Coeff-Com: -0.527D+00 0.737D+00 0.441D+00 0.348D+00
 Coeff-En:   0.000D+00 0.000D+00 0.315D+00 0.685D+00
 Coeff:     -0.491D+00 0.687D+00 0.433D+00 0.372D+00
 Gap=     0.083 Goal=   None    Shift=    0.000
 RMSDP=1.08D-03 MaxDP=6.70D-02 DE=-4.60D-02 OVMax= 7.51D-02

 Cycle   5  Pass 1  IDiag  1:
 E= -423.666480617427     Delta-E=       -0.028561179866 Rises=F Damp=F
 DIIS: error= 6.64D-04 at cycle   5 NSaved=   5.
 NSaved= 5 IEnMin= 5 EnMin= -423.666480617427     IErMin= 5 ErrMin= 6.64D-04
 ErrMax= 6.64D-04  0.00D+00 EMaxC= 1.00D-01 BMatC= 2.53D-04 BMatP= 3.03D-02
 IDIUse=3 WtCom= 9.93D-01 WtEn= 6.64D-03
 Coeff-Com: -0.695D-01 0.980D-01 0.110D+00 0.106D+00 0.755D+00
 Coeff-En:   0.000D+00 0.000D+00 0.000D+00 0.000D+00 0.100D+01
 Coeff:     -0.691D-01 0.973D-01 0.109D+00 0.106D+00 0.757D+00
 Gap=     0.080 Goal=   None    Shift=    0.000
 RMSDP=1.55D-04 MaxDP=9.48D-03 DE=-2.86D-02 OVMax= 5.98D-03

 Cycle   6  Pass 1  IDiag  1:
 E= -423.666603318894     Delta-E=       -0.000122701466 Rises=F Damp=F
 DIIS: error= 5.56D-04 at cycle   6 NSaved=   6.
 NSaved= 6 IEnMin= 6 EnMin= -423.666603318894     IErMin= 6 ErrMin= 5.56D-04
 ErrMax= 5.56D-04  0.00D+00 EMaxC= 1.00D-01 BMatC= 1.10D-04 BMatP= 2.53D-04
 IDIUse=3 WtCom= 9.94D-01 WtEn= 5.56D-03
 Coeff-Com:  0.212D-01-0.293D-01 0.157D-01 0.163D-01 0.478D+00 0.498D+00
 Coeff-En:   0.000D+00 0.000D+00 0.000D+00 0.000D+00 0.280D+00 0.720D+00
 Coeff:      0.211D-01-0.292D-01 0.157D-01 0.162D-01 0.477D+00 0.499D+00
 Gap=     0.082 Goal=   None    Shift=    0.000
 RMSDP=6.63D-05 MaxDP=2.64D-03 DE=-1.23D-04 OVMax= 3.47D-03

 Cycle   7  Pass 1  IDiag  1:
 E= -423.666698266942     Delta-E=       -0.000094948048 Rises=F Damp=F
 DIIS: error= 6.81D-05 at cycle   7 NSaved=   7.
 NSaved= 7 IEnMin= 7 EnMin= -423.666698266942     IErMin= 7 ErrMin= 6.81D-05
 ErrMax= 6.81D-05  0.00D+00 EMaxC= 1.00D-01 BMatC= 2.39D-06 BMatP= 1.10D-04
 IDIUse=1 WtCom= 1.00D+00 WtEn= 0.00D+00
 Coeff-Com:  0.800D-02-0.110D-01-0.415D-03-0.269D-02 0.959D-01 0.178D+00
 Coeff-Com:  0.732D+00
 Coeff:      0.800D-02-0.110D-01-0.415D-03-0.269D-02 0.959D-01 0.178D+00
 Coeff:      0.732D+00
 Gap=     0.082 Goal=   None    Shift=    0.000
 RMSDP=1.49D-05 MaxDP=7.88D-04 DE=-9.49D-05 OVMax= 6.07D-04

 Cycle   8  Pass 1  IDiag  1:
 E= -423.666700317273     Delta-E=       -0.000002050332 Rises=F Damp=F
 DIIS: error= 2.55D-05 at cycle   8 NSaved=   8.
 NSaved= 8 IEnMin= 8 EnMin= -423.666700317273     IErMin= 8 ErrMin= 2.55D-05
 ErrMax= 2.55D-05  0.00D+00 EMaxC= 1.00D-01 BMatC= 3.38D-07 BMatP= 2.39D-06
 IDIUse=1 WtCom= 1.00D+00 WtEn= 0.00D+00
 Coeff-Com:  0.106D-02-0.145D-02-0.816D-03-0.283D-02 0.436D-02 0.432D-01
 Coeff-Com:  0.339D+00 0.617D+00
 Coeff:      0.106D-02-0.145D-02-0.816D-03-0.283D-02 0.436D-02 0.432D-01
 Coeff:      0.339D+00 0.617D+00
 Gap=     0.082 Goal=   None    Shift=    0.000
 RMSDP=4.27D-06 MaxDP=3.17D-04 DE=-2.05D-06 OVMax= 2.21D-04

 Cycle   9  Pass 1  IDiag  1:
 E= -423.666700642947     Delta-E=       -0.000000325674 Rises=F Damp=F
 DIIS: error= 1.10D-05 at cycle   9 NSaved=   9.
 NSaved= 9 IEnMin= 9 EnMin= -423.666700642947     IErMin= 9 ErrMin= 1.10D-05
 ErrMax= 1.10D-05  0.00D+00 EMaxC= 1.00D-01 BMatC= 4.92D-08 BMatP= 3.38D-07
 IDIUse=1 WtCom= 1.00D+00 WtEn= 0.00D+00
 Coeff-Com: -0.547D-03 0.766D-03-0.182D-03-0.138D-02-0.989D-02-0.179D-02
 Coeff-Com:  0.570D-01 0.260D+00 0.696D+00
 Coeff:     -0.547D-03 0.766D-03-0.182D-03-0.138D-02-0.989D-02-0.179D-02
 Coeff:      0.570D-01 0.260D+00 0.696D+00
 Gap=     0.082 Goal=   None    Shift=    0.000
 RMSDP=2.31D-06 MaxDP=2.19D-04 DE=-3.26D-07 OVMax= 1.33D-04

 Cycle  10  Pass 1  IDiag  1:
 E= -423.666700694528     Delta-E=       -0.000000051580 Rises=F Damp=F
 DIIS: error= 3.15D-06 at cycle  10 NSaved=  10.
 NSaved=10 IEnMin=10 EnMin= -423.666700694528     IErMin=10 ErrMin= 3.15D-06
 ErrMax= 3.15D-06  0.00D+00 EMaxC= 1.00D-01 BMatC= 5.11D-09 BMatP= 4.92D-08
 IDIUse=1 WtCom= 1.00D+00 WtEn= 0.00D+00
 Coeff-Com: -0.147D-03 0.206D-03-0.256D-04-0.505D-03-0.363D-02-0.222D-02
 Coeff-Com: -0.105D-02 0.499D-01 0.206D+00 0.752D+00
 Coeff:     -0.147D-03 0.206D-03-0.256D-04-0.505D-03-0.363D-02-0.222D-02
 Coeff:     -0.105D-02 0.499D-01 0.206D+00 0.752D+00
 Gap=     0.082 Goal=   None    Shift=    0.000
 RMSDP=7.76D-07 MaxDP=2.58D-05 DE=-5.16D-08 OVMax= 8.57D-05

 Cycle  11  Pass 1  IDiag  1:
 E= -423.666700701038     Delta-E=       -0.000000006510 Rises=F Damp=F
 DIIS: error= 1.39D-06 at cycle  11 NSaved=  11.
 NSaved=11 IEnMin=11 EnMin= -423.666700701038     IErMin=11 ErrMin= 1.39D-06
 ErrMax= 1.39D-06  0.00D+00 EMaxC= 1.00D-01 BMatC= 8.40D-10 BMatP= 5.11D-09
 IDIUse=1 WtCom= 1.00D+00 WtEn= 0.00D+00
 Coeff-Com:  0.495D-05-0.918D-05 0.205D-04-0.385D-04-0.408D-03-0.975D-03
 Coeff-Com: -0.122D-01-0.253D-01-0.485D-01 0.374D+00 0.713D+00
 Coeff:      0.495D-05-0.918D-05 0.205D-04-0.385D-04-0.408D-03-0.975D-03
 Coeff:     -0.122D-01-0.253D-01-0.485D-01 0.374D+00 0.713D+00
 Gap=     0.082 Goal=   None    Shift=    0.000
 RMSDP=5.18D-07 MaxDP=4.21D-05 DE=-6.51D-09 OVMax= 5.39D-05

 Cycle  12  Pass 1  IDiag  1:
 E= -423.666700702512     Delta-E=       -0.000000001474 Rises=F Damp=F
 DIIS: error= 4.18D-07 at cycle  12 NSaved=  12.
 NSaved=12 IEnMin=12 EnMin= -423.666700702512     IErMin=12 ErrMin= 4.18D-07
 ErrMax= 4.18D-07  0.00D+00 EMaxC= 1.00D-01 BMatC= 6.20D-11 BMatP= 8.40D-10
 IDIUse=1 WtCom= 1.00D+00 WtEn= 0.00D+00
 Coeff-Com:  0.245D-04-0.352D-04 0.120D-04 0.602D-04 0.414D-03 0.218D-03
 Coeff-Com: -0.378D-02-0.176D-01-0.550D-01 0.627D-01 0.285D+00 0.728D+00
 Coeff:      0.245D-04-0.352D-04 0.120D-04 0.602D-04 0.414D-03 0.218D-03
 Coeff:     -0.378D-02-0.176D-01-0.550D-01 0.627D-01 0.285D+00 0.728D+00
 Gap=     0.082 Goal=   None    Shift=    0.000
 RMSDP=1.36D-07 MaxDP=3.63D-06 DE=-1.47D-09 OVMax= 1.93D-05

 Cycle  13  Pass 1  IDiag  1:
 E= -423.666700702659     Delta-E=       -0.000000000148 Rises=F Damp=F
 DIIS: error= 1.75D-07 at cycle  13 NSaved=  13.
 NSaved=13 IEnMin=13 EnMin= -423.666700702659     IErMin=13 ErrMin= 1.75D-07
 ErrMax= 1.75D-07  0.00D+00 EMaxC= 1.00D-01 BMatC= 1.40D-11 BMatP= 6.20D-11
 IDIUse=1 WtCom= 1.00D+00 WtEn= 0.00D+00
 Coeff-Com:  0.476D-05-0.657D-05 0.640D-06 0.373D-04 0.202D-03 0.251D-03
 Coeff-Com:  0.647D-03-0.304D-02-0.135D-01-0.288D-01-0.431D-02 0.140D+00
 Coeff-Com:  0.909D+00
 Coeff:      0.476D-05-0.657D-05 0.640D-06 0.373D-04 0.202D-03 0.251D-03
 Coeff:      0.647D-03-0.304D-02-0.135D-01-0.288D-01-0.431D-02 0.140D+00
 Coeff:      0.909D+00
 Gap=     0.082 Goal=   None    Shift=    0.000
 RMSDP=6.19D-08 MaxDP=1.29D-06 DE=-1.48D-10 OVMax= 9.86D-06

 Cycle  14  Pass 1  IDiag  1:
 E= -423.666700702691     Delta-E=       -0.000000000031 Rises=F Damp=F
 DIIS: error= 6.98D-08 at cycle  14 NSaved=  14.
 NSaved=14 IEnMin=14 EnMin= -423.666700702691     IErMin=14 ErrMin= 6.98D-08
 ErrMax= 6.98D-08  0.00D+00 EMaxC= 1.00D-01 BMatC= 3.01D-12 BMatP= 1.40D-11
 IDIUse=1 WtCom= 1.00D+00 WtEn= 0.00D+00
 Coeff-Com: -0.235D-05 0.339D-05-0.125D-05 0.711D-05 0.212D-05 0.500D-04
 Coeff-Com:  0.679D-03 0.977D-03 0.237D-02-0.106D-01-0.281D-01-0.960D-01
 Coeff-Com:  0.415D+00 0.716D+00
 Coeff:     -0.235D-05 0.339D-05-0.125D-05 0.711D-05 0.212D-05 0.500D-04
 Coeff:      0.679D-03 0.977D-03 0.237D-02-0.106D-01-0.281D-01-0.960D-01
 Coeff:      0.415D+00 0.716D+00
 Gap=     0.082 Goal=   None    Shift=    0.000
 RMSDP=1.80D-08 MaxDP=8.64D-07 DE=-3.13D-11 OVMax= 2.46D-06

 Cycle  15  Pass 1  IDiag  1:
 E= -423.666700702697     Delta-E=       -0.000000000006 Rises=F Damp=F
 DIIS: error= 2.18D-08 at cycle  15 NSaved=  15.
 NSaved=15 IEnMin=15 EnMin= -423.666700702697     IErMin=15 ErrMin= 2.18D-08
 ErrMax= 2.18D-08  0.00D+00 EMaxC= 1.00D-01 BMatC= 1.71D-13 BMatP= 3.01D-12
 IDIUse=1 WtCom= 1.00D+00 WtEn= 0.00D+00
 Coeff-Com: -0.224D-06 0.360D-06-0.427D-06-0.672D-07-0.888D-05-0.123D-05
 Coeff-Com:  0.175D-03 0.535D-03 0.189D-02-0.165D-02-0.106D-01-0.645D-01
 Coeff-Com:  0.421D-01 0.247D+00 0.785D+00
 Coeff:     -0.224D-06 0.360D-06-0.427D-06-0.672D-07-0.888D-05-0.123D-05
 Coeff:      0.175D-03 0.535D-03 0.189D-02-0.165D-02-0.106D-01-0.645D-01
 Coeff:      0.421D-01 0.247D+00 0.785D+00
 Gap=     0.082 Goal=   None    Shift=    0.000
 RMSDP=7.97D-09 MaxDP=2.71D-07 DE=-6.37D-12 OVMax= 1.01D-06

 Error on total polarization charges =  0.01759
 SCF Done:  E(RN12SX) =  -423.666700703     A.U. after   15 cycles
            NFock= 15  Conv=0.80D-08     -V/T= 2.0082
 KE= 4.202009299115D+02 PE=-2.119001894957D+03 EE= 7.071875286027D+02
 Leave Link  502 at Sun Jun 20 22:32:17 2021, MaxMem=  3355443200 cpu:      1147.4
 (Enter /usr/local/gqt/g09/l601.exe)
 Copying SCF densities to generalized density rwf, IOpCl= 0 IROHF=0.

 **********************************************************************

            Population analysis using the SCF density.

 **********************************************************************

 Orbital symmetries:
       Occupied  (A) (A) (A) (A) (A) (A) (A) (A) (A) (A) (A) (A)
                 (A) (A) (A) (A) (A) (A) (A) (A) (A) (A) (A) (A)
                 (A) (A) (A) (A) (A) (A) (A) (A) (A) (A) (A) (A)
                 (A) (A) (A)
       Virtual   (A) (A) (A) (A) (A) (A) (A) (A) (A) (A) (A) (A)
                 (A) (A) (A) (A) (A) (A) (A) (A) (A) (A) (A) (A)
                 (A) (A) (A) (A) (A) (A) (A) (A) (A) (A) (A) (A)
                 (A) (A) (A) (A) (A) (A) (A) (A) (A) (A) (A) (A)
                 (A) (A) (A) (A) (A) (A) (A) (A) (A) (A) (A) (A)
                 (A) (A) (A) (A) (A) (A) (A) (A) (A) (A) (A) (A)
                 (A) (A) (A) (A) (A) (A) (A) (A) (A) (A) (A) (A)
                 (A) (A) (A) (A) (A) (A) (A) (A) (A) (A) (A) (A)
                 (A) (A) (A) (A) (A) (A) (A) (A) (A) (A) (A) (A)
                 (A) (A) (A) (A) (A) (A) (A) (A) (A) (A) (A) (A)
                 (A) (A) (A) (A) (A) (A) (A) (A) (A) (A) (A) (A)
                 (A) (A) (A) (A) (A) (A) (A) (A) (A) (A) (A) (A)
                 (A) (A) (A) (A) (A) (A) (A) (A) (A) (A) (A) (A)
                 (A) (A) (A) (A) (A) (A) (A) (A) (A) (A) (A) (A)
                 (A) (A) (A) (A) (A) (A) (A) (A) (A) (A) (A) (A)
                 (A) (A) (A) (A) (A) (A) (A) (A) (A) (A) (A) (A)
                 (A) (A) (A) (A) (A) (A) (A) (A) (A) (A) (A) (A)
                 (A) (A) (A) (A) (A) (A) (A) (A) (A) (A) (A) (A)
                 (A) (A) (A) (A) (A) (A) (A) (A) (A) (A) (A) (A)
                 (A) (A) (A) (A) (A) (A) (A) (A) (A) (A) (A) (A)
                 (A) (A) (A) (A) (A) (A) (A) (A) (A) (A) (A) (A)
                 (A) (A) (A) (A) (A) (A) (A) (A) (A) (A) (A) (A)
                 (A) (A) (A) (A) (A) (A) (A) (A) (A) (A) (A) (A)
                 (A)
 The electronic state is 1-A.
 Alpha  occ. eigenvalues --  -14.39483 -14.34549 -10.30425 -10.27076 -10.24926
 Alpha  occ. eigenvalues --  -10.24883 -10.24746 -10.21664 -10.21320 -10.20697
 Alpha  occ. eigenvalues --   -0.91917  -0.86482  -0.79563  -0.73347  -0.70147
 Alpha  occ. eigenvalues --   -0.68538  -0.66428  -0.60105  -0.56532  -0.51951
 Alpha  occ. eigenvalues --   -0.48496  -0.47746  -0.44904  -0.43683  -0.42727
 Alpha  occ. eigenvalues --   -0.41732  -0.41008  -0.40899  -0.39465  -0.38166
 Alpha  occ. eigenvalues --   -0.36998  -0.36730  -0.34717  -0.31946  -0.31488
 Alpha  occ. eigenvalues --   -0.31106  -0.28530  -0.22001  -0.16802
 Alpha virt. eigenvalues --   -0.08616  -0.00464   0.00674   0.00807   0.01455
 Alpha virt. eigenvalues --    0.02052   0.02802   0.03633   0.03768   0.03943
 Alpha virt. eigenvalues --    0.04530   0.06073   0.06601   0.06857   0.07165
 Alpha virt. eigenvalues --    0.07338   0.08029   0.08293   0.09122   0.10380
 Alpha virt. eigenvalues --    0.10561   0.11114   0.11446   0.11950   0.12500
 Alpha virt. eigenvalues --    0.13457   0.13884   0.14213   0.14700   0.15351
 Alpha virt. eigenvalues --    0.15831   0.16251   0.16560   0.17008   0.17864
 Alpha virt. eigenvalues --    0.18490   0.18937   0.19275   0.20039   0.20195
 Alpha virt. eigenvalues --    0.20661   0.20978   0.21103   0.21656   0.22499
 Alpha virt. eigenvalues --    0.23374   0.23781   0.24138   0.25704   0.25952
 Alpha virt. eigenvalues --    0.26441   0.26760   0.27992   0.28726   0.29158
 Alpha virt. eigenvalues --    0.29457   0.30354   0.30967   0.32235   0.32858
 Alpha virt. eigenvalues --    0.33563   0.34710   0.35357   0.36184   0.36811
 Alpha virt. eigenvalues --    0.37573   0.38139   0.42303   0.42802   0.44692
 Alpha virt. eigenvalues --    0.45350   0.47971   0.48474   0.49425   0.50796
 Alpha virt. eigenvalues --    0.52135   0.52715   0.54150   0.54699   0.56103
 Alpha virt. eigenvalues --    0.57404   0.58052   0.59976   0.61077   0.62025
 Alpha virt. eigenvalues --    0.62735   0.64366   0.64850   0.66373   0.67007
 Alpha virt. eigenvalues --    0.67376   0.68302   0.69034   0.69400   0.70953
 Alpha virt. eigenvalues --    0.71329   0.72289   0.73476   0.73755   0.73887
 Alpha virt. eigenvalues --    0.74509   0.76169   0.76646   0.77736   0.78373
 Alpha virt. eigenvalues --    0.78483   0.80732   0.83934   0.88134   0.88585
 Alpha virt. eigenvalues --    0.90300   0.91782   0.94561   0.96126   0.96363
 Alpha virt. eigenvalues --    0.97397   1.00605   1.03811   1.05143   1.07593
 Alpha virt. eigenvalues --    1.09947   1.10788   1.13578   1.18671   1.21288
 Alpha virt. eigenvalues --    1.22588   1.25072   1.26486   1.27751   1.33260
 Alpha virt. eigenvalues --    1.35763   1.38521   1.40036   1.41553   1.43547
 Alpha virt. eigenvalues --    1.44743   1.45163   1.46774   1.47249   1.50387
 Alpha virt. eigenvalues --    1.52777   1.54088   1.55154   1.56109   1.56841
 Alpha virt. eigenvalues --    1.58261   1.60010   1.60317   1.60935   1.62471
 Alpha virt. eigenvalues --    1.63267   1.64401   1.65581   1.66443   1.66614
 Alpha virt. eigenvalues --    1.67749   1.69384   1.70579   1.71077   1.72027
 Alpha virt. eigenvalues --    1.72869   1.75149   1.76686   1.76948   1.78566
 Alpha virt. eigenvalues --    1.79784   1.82038   1.82932   1.83047   1.85221
 Alpha virt. eigenvalues --    1.86273   1.88331   1.89215   1.90830   1.96262
 Alpha virt. eigenvalues --    2.00070   2.02630   2.04620   2.05388   2.08185
 Alpha virt. eigenvalues --    2.08446   2.09252   2.11428   2.13750   2.14814
 Alpha virt. eigenvalues --    2.15820   2.18098   2.20807   2.22346   2.23271
 Alpha virt. eigenvalues --    2.25408   2.28657   2.28972   2.32339   2.35024
 Alpha virt. eigenvalues --    2.37266   2.37657   2.40783   2.43668   2.45187
 Alpha virt. eigenvalues --    2.46388   2.47103   2.49166   2.49867   2.50893
 Alpha virt. eigenvalues --    2.51862   2.52196   2.54163   2.55123   2.55782
 Alpha virt. eigenvalues --    2.57860   2.58924   2.60683   2.61768   2.62741
 Alpha virt. eigenvalues --    2.65030   2.65627   2.66807   2.68291   2.68983
 Alpha virt. eigenvalues --    2.72364   2.73586   2.74347   2.75653   2.77098
 Alpha virt. eigenvalues --    2.77416   2.80460   2.82733   2.84333   2.85460
 Alpha virt. eigenvalues --    2.87671   2.89396   2.90557   2.92590   2.95588
 Alpha virt. eigenvalues --    2.97912   3.03327   3.05517   3.09208   3.17041
 Alpha virt. eigenvalues --    3.24733   3.30544   3.35495   3.36650   3.46513
 Alpha virt. eigenvalues --    3.53359   3.58746   3.65840   3.71895   3.72597
 Alpha virt. eigenvalues --    3.75433   3.76890   3.80168   3.81102   3.85741
 Alpha virt. eigenvalues --    3.90809   3.93966   3.98806   4.00904   4.10016
 Alpha virt. eigenvalues --    4.16334   4.22471   4.37668   4.42746   4.60374
 Alpha virt. eigenvalues --    4.84617   4.92855  23.49500  23.73569  23.73957
 Alpha virt. eigenvalues --   23.78501  23.80619  23.81394  23.83223  23.85272
 Alpha virt. eigenvalues --   35.27397  35.32168
          Condensed to atoms (all electrons):
               1          2          3          4          5          6
     1  C    6.189282  -0.298600   0.140463   0.135047   0.460472  -0.100554
     2  C   -0.298600   6.123770  -0.333247  -0.273847  -0.021334   0.518247
     3  C    0.140463  -0.333247   6.400136   0.369293  -0.019439  -0.030020
     4  C    0.135047  -0.273847   0.369293   7.928008  -0.003673   0.004005
     5  H    0.460472  -0.021334  -0.019439  -0.003673   0.519490   0.006040
     6  H   -0.100554   0.518247  -0.030020   0.004005   0.006040   0.481507
     7  H   -0.006573  -0.068087   0.417584  -0.023811  -0.000520   0.002844
     8  H    0.475773  -0.084329   0.009098   0.006511  -0.031160  -0.008375
     9  H   -0.032878   0.412463  -0.042495   0.000374  -0.010410  -0.028726
    10  H   -0.008978  -0.007568   0.415946  -0.006250   0.000382   0.000542
    11  C   -0.268774   0.049076  -0.367622  -0.166772  -0.074977   0.007908
    12  H   -0.098390  -0.000645  -0.015258   0.005773  -0.007538  -0.000703
    13  H   -0.006927   0.012151   0.011734   0.000451  -0.004682  -0.000220
    14  C   -0.082816  -0.018127   0.080521  -0.178634   0.013821  -0.003803
    15  H    0.013473  -0.015886   0.014592   0.037262  -0.000204   0.000071
    16  H    0.011714   0.002257   0.002891   0.005699  -0.000371  -0.000016
    17  C    0.006713  -0.020655  -0.129660  -0.183942  -0.000705   0.000198
    18  H    0.001197  -0.003156  -0.006215   0.046298  -0.000001   0.000031
    19  H   -0.001694   0.005852   0.010569  -0.023990  -0.000002   0.000038
    20  H   -0.000548   0.000086   0.005206   0.012106   0.000003  -0.000083
    21  C   -0.011313   0.008708  -0.041583  -0.185921   0.001202  -0.000255
    22  H    0.002023  -0.003482   0.013754   0.044442  -0.000004   0.000001
    23  H    0.000955   0.001202  -0.002577   0.010805   0.000006  -0.000010
    24  H   -0.005228   0.007022  -0.035589  -0.056693   0.000031  -0.000025
    25  N   -0.052044   0.115141  -0.397407  -0.400034   0.001927  -0.017594
    26  N    0.052331  -0.019725   0.088433  -0.348295  -0.003982  -0.001728
               7          8          9         10         11         12
     1  C   -0.006573   0.475773  -0.032878  -0.008978  -0.268774  -0.098390
     2  C   -0.068087  -0.084329   0.412463  -0.007568   0.049076  -0.000645
     3  C    0.417584   0.009098  -0.042495   0.415946  -0.367622  -0.015258
     4  C   -0.023811   0.006511   0.000374  -0.006250  -0.166772   0.005773
     5  H   -0.000520  -0.031160  -0.010410   0.000382  -0.074977  -0.007538
     6  H    0.002844  -0.008375  -0.028726   0.000542   0.007908  -0.000703
     7  H    0.531548   0.000718   0.003916  -0.038435   0.020311   0.004986
     8  H    0.000718   0.517902  -0.001801  -0.000270  -0.029517   0.006646
     9  H    0.003916  -0.001801   0.506376  -0.009907   0.011068  -0.000204
    10  H   -0.038435  -0.000270  -0.009907   0.492416   0.011111  -0.000058
    11  C    0.020311  -0.029517   0.011068   0.011111   6.348880   0.546935
    12  H    0.004986   0.006646  -0.000204  -0.000058   0.546935   0.505084
    13  H   -0.000963  -0.008251  -0.000152   0.000003   0.341049  -0.030591
    14  C   -0.000904  -0.024903   0.004819  -0.001629  -0.185477  -0.048036
    15  H   -0.000303   0.003215  -0.000135  -0.000014  -0.099753   0.004473
    16  H    0.000211  -0.000092   0.000028  -0.000009  -0.077659  -0.003112
    17  C    0.015472   0.000028  -0.000021  -0.004633   0.024551   0.000520
    18  H    0.000235  -0.000001   0.000010  -0.000036   0.001215  -0.000025
    19  H    0.002814   0.000001   0.000006  -0.000544   0.000359  -0.000016
    20  H   -0.001187   0.000000  -0.000027   0.001228  -0.000440   0.000002
    21  C    0.002362  -0.000759  -0.000099   0.000460   0.008827   0.000942
    22  H   -0.000261   0.000002   0.000001  -0.000016  -0.007480  -0.000137
    23  H   -0.000196   0.000002  -0.000001   0.000005   0.003544   0.000497
    24  H    0.003090  -0.000006  -0.000013   0.000153   0.010636   0.000534
    25  N   -0.038155  -0.001553   0.009923  -0.031087   0.103257   0.002370
    26  N    0.004027  -0.002209   0.001711  -0.000457  -0.199628  -0.031553
              13         14         15         16         17         18
     1  C   -0.006927  -0.082816   0.013473   0.011714   0.006713   0.001197
     2  C    0.012151  -0.018127  -0.015886   0.002257  -0.020655  -0.003156
     3  C    0.011734   0.080521   0.014592   0.002891  -0.129660  -0.006215
     4  C    0.000451  -0.178634   0.037262   0.005699  -0.183942   0.046298
     5  H   -0.004682   0.013821  -0.000204  -0.000371  -0.000705  -0.000001
     6  H   -0.000220  -0.003803   0.000071  -0.000016   0.000198   0.000031
     7  H   -0.000963  -0.000904  -0.000303   0.000211   0.015472   0.000235
     8  H   -0.008251  -0.024903   0.003215  -0.000092   0.000028  -0.000001
     9  H   -0.000152   0.004819  -0.000135   0.000028  -0.000021   0.000010
    10  H    0.000003  -0.001629  -0.000014  -0.000009  -0.004633  -0.000036
    11  C    0.341049  -0.185477  -0.099753  -0.077659   0.024551   0.001215
    12  H   -0.030591  -0.048036   0.004473  -0.003112   0.000520  -0.000025
    13  H    0.538669  -0.033147   0.001973  -0.004491  -0.000216   0.000001
    14  C   -0.033147   6.028363   0.457033   0.442177  -0.026157  -0.006287
    15  H    0.001973   0.457033   0.513213  -0.022556  -0.001012   0.000014
    16  H   -0.004491   0.442177  -0.022556   0.508006   0.000394   0.000012
    17  C   -0.000216  -0.026157  -0.001012   0.000394   5.300765   0.396800
    18  H    0.000001  -0.006287   0.000014   0.000012   0.396800   0.480682
    19  H    0.000000   0.001939   0.000003   0.000000   0.411733  -0.023680
    20  H    0.000000   0.000972   0.000000  -0.000002   0.389717  -0.024664
    21  C    0.000767   0.001242  -0.006466  -0.006779  -0.023892  -0.002477
    22  H    0.000083  -0.003302   0.000471   0.001075  -0.008093   0.001205
    23  H   -0.000263  -0.002147   0.000240   0.001491   0.000094   0.000103
    24  H   -0.000252   0.011716  -0.000950  -0.000781   0.016736  -0.004095
    25  N   -0.001621   0.126713  -0.011958  -0.005632   0.153641  -0.053932
    26  N    0.028515  -0.025925  -0.056246  -0.030060   0.054316   0.001446
              19         20         21         22         23         24
     1  C   -0.001694  -0.000548  -0.011313   0.002023   0.000955  -0.005228
     2  C    0.005852   0.000086   0.008708  -0.003482   0.001202   0.007022
     3  C    0.010569   0.005206  -0.041583   0.013754  -0.002577  -0.035589
     4  C   -0.023990   0.012106  -0.185921   0.044442   0.010805  -0.056693
     5  H   -0.000002   0.000003   0.001202  -0.000004   0.000006   0.000031
     6  H    0.000038  -0.000083  -0.000255   0.000001  -0.000010  -0.000025
     7  H    0.002814  -0.001187   0.002362  -0.000261  -0.000196   0.003090
     8  H    0.000001   0.000000  -0.000759   0.000002   0.000002  -0.000006
     9  H    0.000006  -0.000027  -0.000099   0.000001  -0.000001  -0.000013
    10  H   -0.000544   0.001228   0.000460  -0.000016   0.000005   0.000153
    11  C    0.000359  -0.000440   0.008827  -0.007480   0.003544   0.010636
    12  H   -0.000016   0.000002   0.000942  -0.000137   0.000497   0.000534
    13  H    0.000000   0.000000   0.000767   0.000083  -0.000263  -0.000252
    14  C    0.001939   0.000972   0.001242  -0.003302  -0.002147   0.011716
    15  H    0.000003   0.000000  -0.006466   0.000471   0.000240  -0.000950
    16  H    0.000000  -0.000002  -0.006779   0.001075   0.001491  -0.000781
    17  C    0.411733   0.389717  -0.023892  -0.008093   0.000094   0.016736
    18  H   -0.023680  -0.024664  -0.002477   0.001205   0.000103  -0.004095
    19  H    0.474788  -0.028914  -0.003954   0.000317  -0.000089  -0.001208
    20  H   -0.028914   0.491787   0.001424  -0.000066  -0.000002   0.000401
    21  C   -0.003954   0.001424   5.138925   0.398812   0.402928   0.452239
    22  H    0.000317  -0.000066   0.398812   0.531328  -0.021655  -0.053448
    23  H   -0.000089  -0.000002   0.402928  -0.021655   0.496536  -0.022793
    24  H   -0.001208   0.000401   0.452239  -0.053448  -0.022793   0.565803
    25  N   -0.029426  -0.027529   0.083404  -0.016890   0.000046   0.049722
    26  N    0.004325  -0.005871   0.128366  -0.044496  -0.039188  -0.104019
              25         26
     1  C   -0.052044   0.052331
     2  C    0.115141  -0.019725
     3  C   -0.397407   0.088433
     4  C   -0.400034  -0.348295
     5  H    0.001927  -0.003982
     6  H   -0.017594  -0.001728
     7  H   -0.038155   0.004027
     8  H   -0.001553  -0.002209
     9  H    0.009923   0.001711
    10  H   -0.031087  -0.000457
    11  C    0.103257  -0.199628
    12  H    0.002370  -0.031553
    13  H   -0.001621   0.028515
    14  C    0.126713  -0.025925
    15  H   -0.011958  -0.056246
    16  H   -0.005632  -0.030060
    17  C    0.153641   0.054316
    18  H   -0.053932   0.001446
    19  H   -0.029426   0.004325
    20  H   -0.027529  -0.005871
    21  C    0.083404   0.128366
    22  H   -0.016890  -0.044496
    23  H    0.000046  -0.039188
    24  H    0.049722  -0.104019
    25  N    7.497295  -0.283992
    26  N   -0.283992   7.683614
 Mulliken charges:
               1
     1  C   -0.514125
     2  C   -0.087286
     3  C   -0.559109
     4  C   -0.754210
     5  H    0.175628
     6  H    0.170681
     7  H    0.169279
     8  H    0.173330
     9  H    0.176175
    10  H    0.187645
    11  C   -0.010628
    12  H    0.157505
    13  H    0.156379
    14  C   -0.528023
    15  H    0.169450
    16  H    0.175605
    17  C   -0.372692
    18  H    0.195322
    19  H    0.200773
    20  H    0.186404
    21  C   -0.347109
    22  H    0.165816
    23  H    0.170466
    24  H    0.167018
    25  N    0.225417
    26  N    0.150289
 Sum of Mulliken charges =   0.00000
 Mulliken charges with hydrogens summed into heavy atoms:
               1
     1  C   -0.165167
     2  C    0.259570
     3  C   -0.202185
     4  C   -0.754210
    11  C    0.303256
    14  C   -0.182969
    17  C    0.209807
    21  C    0.156191
    25  N    0.225417
    26  N    0.150289
 Electronic spatial extent (au):  <R**2>=           1574.4280
 Charge=              0.0000 electrons
 Dipole moment (field-independent basis, Debye):
    X=             -0.5783    Y=             -0.8543    Z=              4.5093  Tot=              4.6258
 Quadrupole moment (field-independent basis, Debye-Ang):
   XX=            -57.6877   YY=            -60.0565   ZZ=            -69.7780
   XY=             -2.1264   XZ=              8.1241   YZ=              1.2558
 Traceless Quadrupole moment (field-independent basis, Debye-Ang):
   XX=              4.8197   YY=              2.4509   ZZ=             -7.2706
   XY=             -2.1264   XZ=              8.1241   YZ=              1.2558
 Octapole moment (field-independent basis, Debye-Ang**2):
  XXX=             21.6167  YYY=              0.6291  ZZZ=             20.1459  XYY=              0.1798
  XXY=             -4.6703  XXZ=             12.9439  XZZ=            -10.9782  YZZ=             -4.3614
  YYZ=             11.6214  XYZ=              1.0669
 Hexadecapole moment (field-independent basis, Debye-Ang**3):
 XXXX=          -1044.9935 YYYY=           -767.1552 ZZZZ=           -271.9799 XXXY=            -31.0463
 XXXZ=             34.4533 YYYX=             -4.1881 YYYZ=              8.8904 ZZZX=             36.0888
 ZZZY=              7.0760 XXYY=           -305.2929 XXZZ=           -243.3095 YYZZ=           -181.5590
 XXYZ=             -0.2030 YYXZ=              8.6938 ZZXY=             -6.8849
 N-N= 5.679467357396D+02 E-N=-2.119001892928D+03  KE= 4.202009299115D+02
 No NMR shielding tensors so no spin-rotation constants.
 Leave Link  601 at Sun Jun 20 22:32:17 2021, MaxMem=  3355443200 cpu:         2.3
 (Enter /usr/local/gqt/g09/l701.exe)
 Compute integral first derivatives.
 ... and contract with generalized density number  0.
 D1PCM: PCM CHGder 1st derivatives, ID1Alg=3 FixD1E=F DoIter=F DoCFld=F I1PDM=0.
 GePol: Maximum number of non-zero 1st derivatives   =     199
 Leave Link  701 at Sun Jun 20 22:32:19 2021, MaxMem=  3355443200 cpu:        23.8
 (Enter /usr/local/gqt/g09/l702.exe)
 L702 exits ... SP integral derivatives will be done elsewhere.
 Leave Link  702 at Sun Jun 20 22:32:19 2021, MaxMem=  3355443200 cpu:         0.3
 (Enter /usr/local/gqt/g09/l703.exe)
 Compute integral first derivatives, UseDBF=F ICtDFT=           0.
 Integral derivatives from FoFJK, PRISM(SPDF).
 Calling FoFJK, ICntrl=      2127 FMM=F ISym2X=0 I1Cent= 0 IOpClX= 0 NMat=1 NMatS=1 NMatT=0.
 FoFJK:  IHMeth= 1 ICntrl=    2127 DoSepK=T KAlg= 0 I1Cent=   0 FoldK=F
 IRaf=         1 NMat=   1 IRICut=       1 DoRegI=T DoRafI=F ISym2E= 0.
 FoFCou: FMM=F IPFlag=           0 FMFlag=      100000 FMFlg1=         800
         NFxFlg=           0 DoJE=F BraDBF=F KetDBF=F FulRan=T
         wScrn=  0.000000 ICntrl=    2527 IOpCl=  0 I1Cent=           0 NGrid=           0
         NMat0=    1 NMatS0=      1 NMatT0=    0 NMatD0=    1 NMtDS0=    0 NMtDT0=    0
 Symmetry not used in FoFCou.
 Leave Link  703 at Sun Jun 20 22:32:50 2021, MaxMem=  3355443200 cpu:       488.1
 (Enter /usr/local/gqt/g09/l716.exe)
 Dipole        =-2.27519164D-01-3.36099002D-01 1.77410517D+00
 ***** Axes restored to original set *****
 -------------------------------------------------------------------
 Center     Atomic                   Forces (Hartrees/Bohr)
 Number     Number              X              Y              Z
 -------------------------------------------------------------------
      1        6          -0.000313466   -0.001598057    0.001345692
      2        6          -0.003147256   -0.003360333   -0.005497857
      3        6          -0.013975596   -0.004368647   -0.000322478
      4        6           0.041316901   -0.048893604   -0.017878255
      5        1          -0.002307728    0.002096667    0.003078790
      6        1           0.003279089   -0.004285539    0.000485769
      7        1          -0.001092086    0.000937766    0.001994688
      8        1           0.002865158   -0.002119439    0.002785947
      9        1          -0.002259213   -0.002350723    0.003122521
     10        1          -0.005963879    0.004423509    0.009609324
     11        6          -0.004614096   -0.000241786   -0.010050829
     12        1          -0.003682139    0.004428726    0.000161864
     13        1           0.001672510    0.001315015    0.000735725
     14        6           0.018208040   -0.004794762    0.000751064
     15        1           0.003332819   -0.002626427    0.004182476
     16        1           0.005232968    0.001432655    0.009493439
     17        6          -0.017107138    0.024112367   -0.028619409
     18        1          -0.001969940    0.004379491   -0.012438002
     19        1          -0.009197065    0.005826185   -0.010961512
     20        1          -0.007248978    0.001997326   -0.010642480
     21        6           0.016197556    0.010480319   -0.034356413
     22        1          -0.003815132    0.012551281   -0.006013394
     23        1           0.001450816    0.007638109   -0.001729314
     24        1          -0.004687381   -0.007799647    0.006620736
     25        7          -0.002751208   -0.017658587    0.076490290
     26        7          -0.009423556    0.018478134    0.017651620
 -------------------------------------------------------------------
 Cartesian Forces:  Max     0.076490290 RMS     0.014651355
 Leave Link  716 at Sun Jun 20 22:32:50 2021, MaxMem=  3355443200 cpu:         0.3
 (Enter /usr/local/gqt/g09/l103.exe)

 GradGradGradGradGradGradGradGradGradGradGradGradGradGradGradGradGradGrad
 Berny optimization.
 FormGI is forming the generalized inverse of G from B-inverse, IUseBI=4.
 Internal  Forces:  Max     0.079502933 RMS     0.011465683
 Search for a local minimum.
 Step number   1 out of a maximum of  149
 All quantities printed in internal units (Hartrees-Bohrs-Radians)
 RMS Force = .11466D-01 SwitMx=.10000D-02 MixMth= 1
 Mixed Optimization -- RFO/linear search
 Second derivative matrix not updated -- first step.
 ITU=  0
     Eigenvalues ---    0.00230   0.00230   0.00256   0.00573   0.00624
     Eigenvalues ---    0.00714   0.00932   0.01307   0.02157   0.02696
     Eigenvalues ---    0.02982   0.03306   0.04502   0.04602   0.04785
     Eigenvalues ---    0.05068   0.05268   0.05881   0.06233   0.06396
     Eigenvalues ---    0.06676   0.07030   0.07257   0.07638   0.08592
     Eigenvalues ---    0.08641   0.08709   0.08964   0.09086   0.09190
     Eigenvalues ---    0.11512   0.12570   0.12790   0.14233   0.15983
     Eigenvalues ---    0.16000   0.16000   0.16000   0.16000   0.16000
     Eigenvalues ---    0.16000   0.16748   0.20257   0.21883   0.22809
     Eigenvalues ---    0.23129   0.24972   0.27088   0.27764   0.28050
     Eigenvalues ---    0.28347   0.30890   0.32441   0.33722   0.33830
     Eigenvalues ---    0.33859   0.33913   0.33965   0.33984   0.34105
     Eigenvalues ---    0.34105   0.34134   0.34134   0.34134   0.34134
     Eigenvalues ---    0.34134   0.34134   0.34172   0.34172   0.34750
     Eigenvalues ---    0.34858   0.35764
 RFO step:  Lambda=-7.12369943D-02 EMin= 2.30000000D-03
 Linear search not attempted -- first point.
 Maximum step size (   0.300) exceeded in Quadratic search.
    -- Step size scaled by   0.635
 Iteration  1 RMS(Cart)=  0.07457149 RMS(Int)=  0.00262459
 Iteration  2 RMS(Cart)=  0.00565462 RMS(Int)=  0.00038244
 Iteration  3 RMS(Cart)=  0.00001385 RMS(Int)=  0.00038234
 Iteration  4 RMS(Cart)=  0.00000000 RMS(Int)=  0.00038234
 ITry= 1 IFail=0 DXMaxC= 2.80D-01 DCOld= 1.00D+10 DXMaxT= 3.00D-01 DXLimC= 3.00D+00 Rises=F
 Variable       Old X    -DE/DX   Delta X   Delta X   Delta X     New X
                                 (Linear)    (Quad)   (Total)
    R1        2.91332  -0.00728   0.00000  -0.01362  -0.01367   2.89965
    R2        2.07617  -0.00438   0.00000  -0.00678  -0.00678   2.06939
    R3        2.07570  -0.00444   0.00000  -0.00688  -0.00688   2.06881
    R4        2.91107  -0.01475   0.00000  -0.02747  -0.02751   2.88356
    R5        2.92279  -0.00174   0.00000  -0.00060  -0.00027   2.92252
    R6        2.07041  -0.00470   0.00000  -0.00721  -0.00721   2.06320
    R7        2.07153  -0.00443   0.00000  -0.00681  -0.00681   2.06472
    R8        2.07041  -0.00100   0.00000  -0.00153  -0.00153   2.06888
    R9        2.07153  -0.00631   0.00000  -0.00971  -0.00971   2.06182
   R10        2.77790  -0.00978   0.00000  -0.01566  -0.01597   2.76193
   R11        2.77605  -0.05766   0.00000  -0.08656  -0.08692   2.68913
   R12        2.82447  -0.03036   0.00000  -0.04677  -0.04662   2.77785
   R13        2.07477  -0.00537   0.00000  -0.00830  -0.00830   2.06647
   R14        2.07389  -0.00205   0.00000  -0.00316  -0.00316   2.07073
   R15        2.91544  -0.00807   0.00000  -0.01261  -0.01223   2.90321
   R16        2.07803  -0.00435   0.00000  -0.00676  -0.00676   2.07127
   R17        2.07357  -0.00471   0.00000  -0.00727  -0.00727   2.06631
   R18        2.77790  -0.01932   0.00000  -0.02947  -0.02962   2.74827
   R19        2.07105  -0.00916   0.00000  -0.01409  -0.01409   2.05695
   R20        2.07105  -0.00714   0.00000  -0.01098  -0.01098   2.06007
   R21        2.07105  -0.00679   0.00000  -0.01045  -0.01045   2.06060
   R22        3.26453  -0.07950   0.00000  -0.21134  -0.21134   3.05319
   R23        2.07105  -0.00302   0.00000  -0.00464  -0.00464   2.06641
   R24        2.07105  -0.00604   0.00000  -0.00929  -0.00929   2.06175
   R25        2.07105  -0.00248   0.00000  -0.00381  -0.00381   2.06724
   R26        2.86223  -0.03992   0.00000  -0.06663  -0.06663   2.79560
    A1        1.89853   0.00555   0.00000   0.01345   0.01341   1.91195
    A2        1.89105  -0.00077   0.00000  -0.00670  -0.00639   1.88466
    A3        2.04929  -0.00870   0.00000  -0.01555  -0.01602   2.03327
    A4        1.84473  -0.00103   0.00000   0.00087   0.00081   1.84554
    A5        1.87082   0.00077   0.00000   0.00515   0.00552   1.87634
    A6        1.89901   0.00485   0.00000   0.00446   0.00428   1.90329
    A7        1.99950   0.01302   0.00000   0.03814   0.03809   2.03759
    A8        1.90577  -0.00211   0.00000  -0.00654  -0.00652   1.89926
    A9        1.88221  -0.00427   0.00000  -0.00774  -0.00756   1.87465
   A10        1.91126  -0.00759   0.00000  -0.01983  -0.01966   1.89159
   A11        1.92259  -0.00228   0.00000  -0.00951  -0.00979   1.91279
   A12        1.83516   0.00246   0.00000   0.00281   0.00262   1.83778
   A13        1.91126   0.00157   0.00000   0.02175   0.02175   1.93300
   A14        1.92259  -0.00063   0.00000  -0.01139  -0.01139   1.91120
   A15        1.87941   0.00680   0.00000   0.01794   0.01742   1.89683
   A16        1.83516   0.00298   0.00000   0.01041   0.01034   1.84551
   A17        1.96320  -0.00110   0.00000   0.00086   0.00026   1.96347
   A18        1.95233  -0.00973   0.00000  -0.03949  -0.03926   1.91307
   A19        1.91668   0.01612   0.00000   0.02923   0.02853   1.94520
   A20        1.91859   0.00341   0.00000   0.00366   0.00305   1.92164
   A21        1.85901   0.00253   0.00000   0.00984   0.01009   1.86910
   A22        2.05675  -0.00874   0.00000  -0.02070  -0.02053   2.03622
   A23        1.83302  -0.00088   0.00000   0.00187   0.00193   1.83495
   A24        1.89314  -0.00158   0.00000  -0.01023  -0.01023   1.88291
   A25        1.89017   0.00620   0.00000   0.01877   0.01860   1.90877
   A26        1.92083   0.00238   0.00000   0.01493   0.01515   1.93598
   A27        1.86985   0.00176   0.00000   0.00442   0.00428   1.87413
   A28        1.90907   0.00536   0.00000   0.01805   0.01819   1.92726
   A29        1.84006   0.00218   0.00000   0.00770   0.00736   1.84743
   A30        1.93697  -0.00393   0.00000  -0.01264  -0.01322   1.92375
   A31        1.98480  -0.00753   0.00000  -0.03139  -0.03126   1.95354
   A32        1.87671   0.01156   0.00000   0.03133   0.03082   1.90752
   A33        1.87671   0.01104   0.00000   0.03179   0.03155   1.90825
   A34        1.93357  -0.00800   0.00000  -0.02131  -0.02168   1.91188
   A35        1.87671   0.01299   0.00000   0.03449   0.03384   1.91054
   A36        1.92170  -0.01520   0.00000  -0.04256  -0.04315   1.87855
   A37        1.97478  -0.01018   0.00000  -0.02773  -0.02818   1.94660
   A38        1.87671   0.00982   0.00000   0.01690   0.01524   1.89194
   A39        1.87671   0.00067   0.00000   0.00753   0.00862   1.88532
   A40        2.09307  -0.02285   0.00000  -0.06594  -0.06627   2.02679
   A41        1.87671  -0.00271   0.00000  -0.00023  -0.00027   1.87644
   A42        1.91500  -0.00513   0.00000  -0.01804  -0.01906   1.89595
   A43        1.81490   0.02186   0.00000   0.06672   0.06734   1.88224
   A44        2.22198  -0.01056   0.00000  -0.02259  -0.02383   2.19816
   A45        2.02532   0.00180   0.00000   0.01066   0.01133   2.03665
   A46        1.84713   0.01024   0.00000   0.02339   0.02382   1.87094
   A47        2.20124   0.01163   0.00000   0.02970   0.02941   2.23065
   A48        1.89629   0.00204   0.00000   0.00031   0.00038   1.89667
   A49        2.18367  -0.01375   0.00000  -0.03081  -0.03066   2.15301
    D1       -1.36633  -0.00238   0.00000  -0.00689  -0.00664  -1.37298
    D2        2.76626  -0.00009   0.00000  -0.00310  -0.00299   2.76328
    D3        0.78100   0.00032   0.00000   0.00095   0.00109   0.78209
    D4        2.91943  -0.00364   0.00000  -0.01139  -0.01117   2.90826
    D5        0.76884  -0.00136   0.00000  -0.00760  -0.00751   0.76133
    D6       -1.21642  -0.00095   0.00000  -0.00355  -0.00344  -1.21986
    D7        0.76072  -0.00307   0.00000  -0.00018   0.00003   0.76075
    D8       -1.38987  -0.00079   0.00000   0.00361   0.00369  -1.38618
    D9        2.90805  -0.00038   0.00000   0.00766   0.00777   2.91582
   D10       -1.25290  -0.00140   0.00000  -0.01124  -0.01101  -1.26390
   D11        3.05334  -0.00333   0.00000  -0.02032  -0.02009   3.03325
   D12        0.92754  -0.00762   0.00000  -0.03898  -0.03862   0.88892
   D13        0.88840   0.00051   0.00000  -0.00010  -0.00004   0.88835
   D14       -1.08856  -0.00143   0.00000  -0.00917  -0.00912  -1.09768
   D15        3.06883  -0.00572   0.00000  -0.02783  -0.02765   3.04118
   D16        2.87561   0.00207   0.00000   0.00572   0.00586   2.88147
   D17        0.89866   0.00013   0.00000  -0.00335  -0.00322   0.89544
   D18       -1.22714  -0.00416   0.00000  -0.02201  -0.02175  -1.24889
[...]
 734,-0.00009368,0.00008649,0.00021561,0.00001144,-0.00028546,-0.000004
 47,0.00002338,-0.00001800,0.00000138,0.00007381,-0.00018619,0.00086775
 ,0.00013071,-0.00063374,-0.00006999,0.00013761,-0.00004300,0.00000057,
 0.00002542,0.00002702,-0.00002638,-0.00000973,-0.00010805,0.00034163,-
 0.00037614,0.00094815,0.00015207,0.00012196,0.00001558,-0.00012296,-0.
 00004682,-0.00006757,-0.23689821,0.11272734,0.00443011,-0.00759188,0.0
 0582100,-0.00083355,0.26721904,0.00000559,0.00001357,0.00002876,0.0001
 8498,0.00003247,-0.00009403,-0.00104557,0.00043000,0.00130874,-0.00029
 800,0.00111056,-0.00136991,0.00000354,-0.00000122,0.00000024,0.0000107
 1,-0.00006545,-0.00004756,-0.00022436,-0.00015274,0.00025345,-0.000003
 72,-0.00000007,0.00000356,0.00004209,0.00001545,-0.00007278,0.00016769
 ,0.00016927,0.00052579,0.00000202,-0.00000293,0.00004934,0.00000227,-0
 .00000195,-0.00001098,-0.00000762,-0.00000168,0.00000258,-0.00002123,0
 .00009387,0.00011513,0.00007583,-0.00003369,0.00004805,-0.00000687,-0.
 00004868,0.00001013,0.11499202,-0.11552876,-0.00169073,-0.00054065,-0.
 00054291,0.00034021,-0.11841490,0.11997554,0.00002936,-0.00012369,0.00
 012890,0.00060735,0.00028955,-0.00017733,-0.00261341,0.00075555,0.0014
 0736,0.00130010,0.00375705,-0.00052576,0.00002004,0.00001251,-0.000000
 40,0.00006731,-0.00004620,0.00003503,-0.00032378,0.00009121,0.00025422
 ,0.00002638,0.00002593,0.00004261,-0.00001861,0.00006165,-0.00012384,0
 .00038837,0.00008470,-0.00052844,-0.00006001,0.00005310,-0.00000621,-0
 .00000002,-0.00000492,0.00001024,0.00000323,-0.00000365,-0.00004595,0.
 00002608,-0.00005889,0.00055096,0.00005500,0.00001592,0.00001373,-0.00
 008465,-0.00002710,-0.00005380,0.00664324,-0.00234114,-0.05131351,0.02
 413876,-0.01595009,0.00300812,0.00248585,0.00530569,0.05001516,-0.0000
 4644,0.00001569,0.00000944,0.00009014,-0.00003354,-0.00014081,-0.00003
 910,0.00044062,0.00101542,0.00198445,-0.00214379,-0.00299098,0.0000293
 4,0.00001746,-0.00001096,-0.00011873,0.00007128,0.00000018,-0.00000920
 ,-0.00007225,-0.00008095,-0.00000959,0.00000382,-0.00002552,0.00000644
 ,0.00005474,-0.00003777,-0.00003164,0.00031149,-0.00011652,-0.00002397
 ,0.00003463,0.00000798,0.00001151,0.00001922,0.00002107,-0.00001531,0.
 00000018,-0.00005655,-0.00012677,-0.00021007,0.00046314,-0.00002450,0.
 00005959,-0.00005593,-0.00011978,0.00008462,-0.00013970,-0.05113946,-0
 .02768769,0.01087311,-0.00168423,-0.01079343,0.00344009,0.00409892,0.0
 2626216,-0.01012301,0.05919873,0.00002157,0.00002633,-0.00007431,-0.00
 000866,-0.00009556,-0.00047455,-0.00081807,0.00061052,0.00107293,0.002
 48905,-0.00013011,-0.00247539,0.00000916,0.00001141,-0.00003296,-0.000
 04021,-0.00008595,-0.00003955,0.00020250,-0.00005357,-0.00012087,-0.00
 001392,0.00000655,-0.00001122,0.00007757,0.00001701,-0.00011288,0.0004
 8217,-0.00005803,-0.00018700,-0.00003911,0.00006931,0.00004632,0.00001
 131,0.00001176,0.00001888,-0.00001335,-0.00000313,-0.00005994,-0.00008
 498,-0.00021260,0.00045998,0.00004907,0.00006538,-0.00000099,-0.000111
 38,0.00002198,-0.00010991,-0.03088470,-0.27606593,0.08714875,0.0010938
 5,0.00355868,-0.00082708,-0.00146981,-0.01470324,0.00681226,0.04128659
 ,0.30173006,-0.00011427,-0.00010030,0.00004969,0.00001720,0.00022808,0
 .00017555,0.00051564,-0.00018645,0.00099367,0.00292034,0.00103563,-0.0
 0226611,0.00003566,0.00003799,0.00002614,-0.00017647,0.00014027,-0.000
 03938,0.00022809,0.00018008,0.00019892,0.00003713,0.00001643,0.0000296
 7,-0.00006010,-0.00004250,0.00002835,0.00006970,-0.00023910,-0.0001302
 4,0.00002314,0.00005684,-0.00008274,0.00000202,-0.00000109,0.00001099,
 0.00001640,0.00000332,-0.00002013,0.00029324,-0.00017906,0.00041984,-0
 .00001944,0.00006175,-0.00002531,-0.00003010,-0.00000747,-0.00001537,0
 .01494103,0.09149163,-0.08418996,0.00218886,0.02779301,-0.00791756,0.0
 0071128,-0.00181775,0.00050782,-0.00872635,-0.09218567,0.08594691,-0.0
 0011702,-0.00031755,-0.00028634,0.00006946,-0.00015227,-0.00002635,-0.
 00001061,-0.00000401,0.00036234,-0.03534505,-0.02473958,0.00485116,0.0
 0025085,0.00010653,-0.00022286,-0.00006409,-0.00017954,0.00006027,-0.0
 0004036,-0.00006213,-0.00013850,-0.00000607,0.00009359,-0.00008673,0.0
 0015852,0.00003316,-0.00011730,0.00019523,0.00001819,-0.00014377,-0.00
 029851,0.00148337,-0.00024737,0.00012579,-0.00000196,0.00030622,-0.000
 08217,-0.00002973,-0.00045420,0.00691793,0.00799006,-0.00364916,-0.001
 29429,0.00265982,-0.00329354,0.00123917,0.00174295,-0.00371187,0.00023
 123,-0.00101293,-0.00001758,0.00007118,0.00006021,-0.00000924,0.000442
 52,0.00004898,0.00029381,-0.00004213,0.00005238,-0.00013054,0.55386737
 ,-0.00014650,-0.00012879,-0.00002576,0.00017049,-0.00036083,-0.0000494
 6,-0.00111604,-0.00006405,0.00146292,-0.02023474,-0.02879264,0.0006210
 5,0.00009896,0.00003748,-0.00014307,-0.00000079,-0.00002502,0.00004309
 ,-0.00048375,-0.00017977,0.00013565,-0.00002112,0.00009953,-0.00010480
 ,0.00006319,0.00010356,-0.00015543,0.00009676,0.00029140,0.00029225,-0
 .00071039,0.00026758,-0.00183324,-0.00001774,0.00032173,0.00011461,-0.
 00023039,-0.00010779,-0.00073614,-0.00128194,-0.01350812,0.01376950,0.
 00050561,-0.00067551,0.00125612,-0.00270665,-0.00026621,0.00060368,-0.
 00105248,0.00137495,-0.00099957,0.00009387,-0.00001067,0.00006896,0.00
 016561,-0.00027084,-0.00010716,0.00047311,0.00034877,0.00049222,-0.033
 55676,0.54666452,0.00027487,-0.00042063,-0.00015726,-0.00015028,0.0002
 0053,0.00006653,-0.00020917,-0.00013246,-0.00181508,0.00108984,-0.0096
 7073,0.01407268,0.00013182,0.00008475,-0.00005986,0.00003267,-0.000010
 38,-0.00009297,-0.00001197,0.00020985,0.00021197,-0.00001031,-0.000023
 36,0.00014503,0.00003655,-0.00008020,0.00014411,-0.00032255,0.00005408
 ,0.00049661,-0.00089283,0.00148177,-0.00043161,0.00010843,-0.00039004,
 -0.00018581,0.00009713,-0.00007238,-0.00022311,0.01475900,0.02282319,-
 0.01923328,-0.00027094,0.00110264,-0.00220044,0.00210705,0.00118710,0.
 00015999,-0.00022472,0.00103511,0.00149938,0.00005448,0.00001288,-0.00
 003958,-0.00076268,-0.00016848,-0.00040132,-0.00026008,-0.00027474,-0.
 00007471,0.05767010,0.01444849,0.59476920,0.00003569,-0.00002578,-0.00
 006719,-0.00000002,-0.00003739,0.00000791,0.00002279,-0.00004049,-0.00
 012107,-0.00012978,0.00006633,0.00204740,-0.00000642,0.00001148,-0.000
 00318,-0.00001630,0.00003791,0.00001898,0.00001174,0.00001026,-0.00001
 083,0.00000346,0.00000568,-0.00000472,-0.00002163,0.00000846,0.0000173
 5,-0.00001768,-0.00000549,-0.00000134,0.00027560,0.00003334,0.00000716
 ,-0.00000392,0.00004171,-0.00003434,-0.00001600,0.00000033,0.00005288,
 -0.00214663,-0.00281480,-0.00051252,0.00044868,-0.00050035,0.00080508,
 0.00058756,-0.00001452,0.00016697,0.00006931,0.00010354,-0.00003038,-0
 .00001983,-0.00002554,-0.00002719,-0.00001070,0.00000732,-0.00001212,0
 .00001674,0.00000256,-0.00001460,-0.10303505,0.04491870,-0.10911407,0.
 10791917,-0.00006051,0.00017980,0.00012758,0.00003069,0.00001005,0.000
 01481,0.00021453,0.00009408,-0.00017342,0.00202808,0.00285324,0.002150
 32,-0.00007207,-0.00005119,0.00005358,-0.00000382,0.00003699,-0.000003
 22,0.00002970,0.00000385,0.00000424,0.00001206,-0.00001146,-0.00000245
 ,-0.00003748,0.00000382,0.00000489,-0.00000137,-0.00003415,-0.00006620
 ,-0.00000628,-0.00064432,0.00009761,-0.00006626,0.00004036,0.00002762,
 -0.00000503,0.00000600,0.00008928,-0.00241965,-0.00157413,0.00131549,0
 .00011799,-0.00043574,0.00068195,-0.00047169,0.00002388,-0.00003271,0.
 00005524,0.00001306,0.00000004,-0.00003571,-0.00003508,-0.00004551,-0.
 00000646,0.00000596,-0.00002155,-0.00000493,-0.00000427,-0.00003705,0.
 03795470,-0.07685620,0.07348773,-0.04002942,0.08233835,0.00002658,-0.0
 0012154,-0.00004756,-0.00001501,-0.00004893,-0.00000668,-0.00022573,-0
 .00009369,0.00012287,-0.00410045,-0.00398698,-0.00014874,0.00005959,0.
 00003057,-0.00005799,-0.00002590,-0.00002605,0.00001975,-0.00002807,0.
 00000343,-0.00000466,-0.00000946,0.00002481,0.00000068,0.00003297,0.00
 000069,0.00000757,0.00001935,0.00003769,0.00006145,-0.00022189,0.00034
 282,0.00000329,-0.00000055,-0.00007778,0.00004103,0.00003358,-0.000013
 52,-0.00012073,0.00224534,0.00169761,0.00014583,-0.00004155,0.00023178
 ,-0.00076568,0.00026247,-0.00018484,0.00019240,0.00001963,-0.00005872,
 -0.00005932,0.00002153,0.00002679,0.00002901,0.00004845,0.00001145,0.0
 0002963,0.00001742,0.00001600,0.00002413,-0.09903328,0.07992505,-0.248
 85363,0.10913810,-0.08900810,0.26909212,0.00002981,-0.00007311,-0.0000
 6118,-0.00006112,0.00011294,0.00008607,0.00027111,-0.00006333,-0.00099
 980,0.00139962,0.00413108,0.00288907,-0.00000471,0.00001377,0.00002714
 ,-0.00000097,0.00003267,-0.00001674,0.00014889,0.00012042,0.00001307,0
 .00002388,-0.00001184,0.00004192,-0.00001947,-0.00004204,0.00009798,-0
 .00011281,-0.00006435,0.00005388,0.00042339,0.00012187,0.00033068,-0.0
 0000404,-0.00006012,-0.00010776,0.00001624,0.00001037,0.00019037,-0.00
 077774,0.00067215,-0.00272505,0.00025376,-0.00008864,0.00026898,0.0008
 8158,-0.00005750,0.00054284,0.00047319,-0.00006421,0.00071977,-0.00001
 244,0.00001022,-0.00004553,-0.00023254,0.00004109,-0.00006159,-0.00020
 399,-0.00017394,-0.00017514,-0.23410888,0.10564077,0.04370604,-0.00908
 296,0.00613877,0.00379288,0.26305056,0.00000985,-0.00000399,-0.0000739
 2,-0.00002043,0.00002826,-0.00003611,-0.00002825,0.00015480,-0.0002555
 3,0.00027029,0.00171177,0.00211142,0.00000359,0.00001313,-0.00001334,0
 .00000260,-0.00000511,0.00000543,0.00008701,-0.00000772,-0.00006180,0.
 00000988,0.00000260,0.00000060,-0.00000563,-0.00000687,0.00001194,-0.0
 0003441,-0.00005534,-0.00000734,0.00038065,0.00007581,0.00015376,0.000
 03276,-0.00008373,0.00000490,0.00004205,-0.00000104,0.00011262,-0.0019
 2354,0.00112896,-0.00129822,-0.00033434,-0.00001511,-0.00031513,0.0002
 6816,0.00028314,-0.00027378,0.00016032,-0.00036497,0.00017806,0.000001
 67,0.00000544,-0.00002020,0.00001924,0.00002307,0.00003168,-0.00009295
 ,-0.00004947,-0.00007359,0.10843112,-0.10807711,-0.02509519,0.00679866
 ,-0.00470796,-0.00338299,-0.10864443,0.11388368,-0.00001875,0.00008491
 ,0.00015198,0.00005987,-0.00004946,-0.00004656,-0.00001578,-0.00006713
 ,0.00056189,-0.00146771,-0.00334941,-0.00118544,-0.00002337,-0.0000370
 7,0.00002947,0.00000179,-0.00000264,0.00001490,-0.00003942,-0.00003261
 ,-0.00000891,-0.00001976,-0.00001087,-0.00000607,-0.00000710,0.0000196
 6,-0.00004784,0.00008260,0.00003239,-0.00005742,-0.00056091,-0.0002228
 6,-0.00020245,-0.00005654,0.00001077,0.00006462,0.00002263,-0.00002156
 ,-0.00012243,0.00226348,-0.00087101,0.00073978,0.00022912,-0.00017001,
 0.00007678,-0.00042622,0.00018225,-0.00065387,-0.00031954,0.00012032,-
 0.00033879,0.00001662,0.00001289,0.00003264,0.00009007,-0.00003505,0.0
 0002619,0.00010673,0.00008434,0.00010065,0.04230936,-0.02426449,-0.061
 55367,-0.02209252,0.01271768,0.00866061,-0.05425985,0.02376284,0.06026
 947,-0.00003781,0.00002268,0.00000503,-0.00002660,0.00003398,-0.000001
 84,-0.00017985,-0.00005406,-0.00046704,0.00196913,-0.00297581,0.001886
 99,-0.00001032,-0.00000619,0.00002794,0.00001021,0.00002495,-0.0000141
 1,-0.00001812,0.00003569,0.00007020,0.00002782,0.00001023,0.00001524,-
 0.00001266,-0.00001773,0.00005390,-0.00010786,0.00003580,0.00016690,0.
 00009733,-0.00009782,0.00012695,-0.00010498,0.00005497,0.00002412,0.00
 001498,0.00004181,0.00005664,-0.00014536,0.00074246,-0.00075544,-0.000
 01641,-0.00011121,0.00006560,-0.00001739,0.00027449,0.00020643,-0.0000
 0971,0.00033848,0.00038425,0.00001684,0.00000309,-0.00001742,-0.000200
 79,-0.00005452,-0.00010921,-0.00005501,-0.00006600,-0.00000151,-0.0539
 5491,-0.03035025,-0.02476979,-0.00223869,-0.01079525,-0.00760080,0.005
 01761,0.02172743,0.01743312,0.06168107,-0.00001132,-0.00002357,0.00005
 106,-0.00003045,0.00008504,0.00001133,-0.00003280,-0.00006757,-0.00062
 465,0.00350265,-0.00076489,0.00275762,-0.00000150,0.00001031,0.0000053
 5,0.00001006,0.00001739,-0.00001781,0.00004190,0.00007521,0.00003186,0
 .00002183,0.00001444,0.00002790,-0.00000336,-0.00002195,0.00006037,-0.
 00010845,-0.00001750,0.00011887,0.00002315,-0.00014426,0.00036933,-0.0
 0009082,-0.00005435,0.00004205,0.00006165,-0.00002682,0.00009084,-0.00
 070302,0.00092032,-0.00106020,0.00026728,-0.00000920,0.00003365,0.0004
 9564,-0.00018690,0.00013747,0.00003363,0.00037589,0.00042478,-0.000003
 49,-0.00000754,-0.00002683,-0.00023027,-0.00003472,-0.00011345,-0.0000
 6535,-0.00007387,-0.00003298,-0.03180375,-0.20461897,-0.12497865,0.002
 06690,0.01037252,0.00668699,-0.00174611,-0.01150235,-0.01055928,0.0442
 4984,0.22648764,0.00012336,0.00007641,0.00009086,-0.00003914,-0.000004
 29,-0.00009597,-0.00027396,0.00001906,0.00032790,-0.00223866,-0.000357
 73,-0.00162433,-0.00003679,-0.00002291,0.00002660,0.00000129,0.0000012
 9,0.00000669,0.00003290,-0.00003099,-0.00004168,-0.00003064,-0.0000427
 7,0.00002404,-0.00001884,-0.00000276,-0.00000404,0.00000286,0.00000458
 ,0.00001204,-0.00000632,-0.00032843,0.00021042,0.00015698,-0.00014257,
 -0.00008451,0.00008487,0.00002216,0.00006361,-0.00068477,0.00010089,0.
 00079721,-0.00013828,-0.00024383,0.00016230,0.00008204,0.00020451,-0.0
 0001823,0.00013810,-0.00036782,-0.00013479,0.00001531,0.00002662,0.000
 02763,0.00013135,0.00003519,0.00008259,-0.00001459,0.00000917,0.000013
 36,-0.02959125,-0.12948996,-0.15284266,-0.00238363,-0.02105039,-0.0141
 7839,-0.00163547,-0.00375226,-0.00361093,0.02674186,0.13575043,0.15871
 190,-0.00084453,0.00014253,-0.00075874,0.00684297,-0.00710592,-0.00657
 256,-0.09944366,-0.00740956,0.00596947,-0.20225596,-0.11758755,0.07581
 981,0.00039834,0.00019714,-0.00005953,0.00183007,-0.00103131,-0.000388
 39,0.00178574,0.00056018,-0.00156831,-0.00041085,0.00021560,0.00006432
 ,0.00057958,0.00010438,-0.00091333,-0.01530807,0.00840568,0.03889073,0
 .00010353,0.00189212,-0.00035894,0.00041933,-0.00025675,0.00022400,0.0
 0004095,-0.00012564,-0.00030775,0.00179091,-0.00245751,0.01059453,0.00
 102720,0.00192934,-0.00000427,-0.00065376,-0.00054202,-0.00045094,-0.1
 4273556,-0.05202292,-0.04383693,0.00601087,0.00468390,0.00494195,-0.02
 708468,-0.02123546,-0.02179602,-0.00928555,-0.01049291,-0.01061323,0.0
 0172223,0.00005699,-0.00908904,0.00000881,-0.00016152,0.00036211,-0.00
 201808,-0.00032109,0.00093768,-0.00227839,-0.00206066,0.00152848,0.529
 24729,-0.00149385,-0.00178520,0.00103985,-0.00802098,0.00535691,0.0149
 0005,-0.00826376,-0.07580622,-0.03154210,-0.11113446,-0.09018588,0.064
 53155,0.00065618,0.00045438,0.00034794,-0.00109074,0.00311366,-0.00087
 235,0.01075524,-0.00112903,-0.03037534,0.00043327,0.00039446,0.0001607
 4,0.00125449,-0.00105825,0.00327481,-0.00383588,0.00201804,0.00688777,
 -0.00158454,0.00158942,-0.00149517,0.00015047,0.00042425,0.00050517,-0
 .00000383,0.00005365,-0.00110093,0.00727124,-0.00420910,0.00630658,-0.
 00127824,0.00160955,-0.00127516,-0.00045098,0.00048505,0.00026780,-0.0
 5563337,-0.09816306,-0.03687885,-0.00311872,-0.00309374,-0.00345131,-0
 .00025495,0.01029526,0.00297228,-0.02748534,-0.01400797,-0.02533662,-0
 .00096976,0.00935045,-0.00414096,-0.00029469,-0.00062288,0.00029474,-0
 .00379255,-0.00111037,0.00163502,-0.00073275,-0.00154474,0.00093129,0.
 25241025,0.30616234,0.00090893,0.00191347,-0.00112583,0.00849785,0.000
 58886,-0.02766283,0.03902544,-0.03232631,-0.15693587,0.09343977,0.0567
 7128,-0.17147193,-0.00053077,-0.00033442,-0.00021839,0.00085909,-0.002
 38659,0.00311244,0.00796479,-0.00663116,-0.02322552,-0.00055531,-0.000
 41803,-0.00065951,-0.00145669,0.00101761,-0.00394562,0.00664566,-0.002
 72675,-0.01372509,0.00078091,-0.00106477,0.00026680,-0.00038080,0.0003
 0130,-0.00017461,-0.00035905,0.00006529,0.00054453,-0.00378481,-0.0005
 9966,-0.00176419,0.00120466,-0.00161324,0.00094529,-0.00009063,-0.0004
 3233,0.00002267,-0.05770804,-0.03259268,-0.14584366,-0.02569856,-0.016
 85878,-0.02162160,-0.00508401,-0.00320948,-0.00222015,0.00767564,0.002
 21458,0.00643126,-0.00279491,0.00002509,0.00149476,0.00042290,-0.00047
 607,0.00085913,0.00094428,-0.00056322,-0.00055198,0.00081546,0.0006115
 2,0.00023541,-0.05171341,0.04455964,0.54106095,-0.00087537,-0.00022819
 ,0.00069656,0.00008092,0.00175373,0.00099034,0.00134942,0.00106042,-0.
 01110413,-0.21637363,-0.09082752,-0.10728646,-0.00037191,0.00026647,-0
 .00000116,0.00042385,-0.00017746,-0.00034504,0.00095079,0.00193067,0.0
 0065614,0.00044492,0.00020629,0.00007805,0.00008875,-0.00023365,0.0002
 9322,-0.00062514,-0.00062775,0.00031044,0.00636859,-0.00805617,0.00160
 797,0.00177561,-0.00096400,0.00019115,0.00073138,-0.00015982,0.0005292
 8,-0.10294379,-0.00168921,-0.01039477,0.00137503,0.00088499,0.00048894
 ,-0.01838280,0.02044883,-0.03393044,0.00253785,-0.00271334,0.00864693,
 -0.00004661,-0.00003269,-0.00032960,-0.00218722,0.00000661,-0.00088246
 ,-0.00246088,-0.00156075,-0.00193796,-0.13689233,-0.06037452,0.0260204
 5,0.00734604,0.00759567,-0.00477732,-0.02534989,-0.02684022,0.01575437
 ,-0.00942012,-0.01388316,0.00805293,-0.04948872,-0.04349174,-0.0190284
 0,0.54194525,-0.00119636,-0.00085461,-0.00085640,-0.00115190,0.0007025
 0,0.00173364,0.00529662,-0.00220464,-0.00697490,-0.07972382,-0.0639463
 3,-0.02427581,0.00023884,0.00022042,0.00011137,0.00000361,0.00060419,-
 0.00025214,-0.00075144,0.00069569,0.00125015,0.00044549,0.00039972,-0.
 00017712,-0.00005353,-0.00021026,0.00086322,-0.00047810,0.00037768,-0.
 00011178,-0.00518195,0.00657061,-0.00315513,-0.00072942,0.00211697,0.0
 0060495,0.00060271,-0.00005922,-0.00202876,0.00778419,-0.10273084,0.04
 887398,0.01515696,-0.01414910,0.03236226,-0.00191328,0.00193129,-0.002
 07361,-0.00142772,0.00730932,0.00628360,-0.00019484,-0.00053325,-0.000
 74467,-0.00343132,-0.00077612,-0.00147124,-0.00054587,-0.00093407,-0.0
 0129762,-0.06784510,-0.12491746,0.04933007,-0.01032470,-0.01100459,0.0
 0767272,-0.00216394,0.00868048,0.00103039,-0.02233432,-0.01925952,0.01
 865510,-0.04778729,-0.04859097,-0.00583513,0.21770649,0.36056211,-0.00
 139164,-0.00182480,-0.00203106,-0.00117770,0.00107254,0.00117827,0.005
 52138,0.00042598,-0.00333773,-0.12208620,-0.01588001,-0.18359398,0.000
 64863,0.00069933,-0.00052519,0.00035424,-0.00002621,-0.00036075,-0.001
 50683,0.00138113,0.00192940,0.00066031,0.00052952,-0.00020981,0.000392
 86,-0.00029429,0.00076095,-0.00001096,0.00059701,0.00009923,-0.0131429
 0,0.01121488,-0.02837571,-0.00101597,0.00211359,0.00414597,0.00137904,
 0.00029451,-0.00509447,-0.04207443,0.04997175,-0.12645186,-0.00510460,
 0.00949772,-0.00980080,-0.00724074,0.00632144,-0.01053180,0.00239614,0
 .00212176,0.00272550,-0.00043310,0.00001935,0.00081830,-0.00200248,0.0
 0047845,-0.00071584,-0.00085048,-0.00089615,-0.00019543,0.03810155,0.0
 4465040,-0.12489526,0.02174498,0.02014387,-0.01504611,0.00638315,0.008
 84935,-0.00234262,-0.01434352,-0.00979756,0.01184298,0.00909831,-0.012
 14642,0.01617353,0.12570096,-0.11951713,0.47383426\\-0.00000326,-0.000
 00405,-0.00000187,-0.00000460,-0.00000038,0.00002562,0.00001622,0.0000
 0341,-0.00002693,-0.00001426,0.00000097,-0.00000008,-0.00000774,-0.000
 00283,-0.00000020,-0.00000099,0.00000326,0.00000079,0.00000624,0.00000
 072,0.00000509,-0.00000556,-0.00000282,0.00000422,0.00000268,-0.000004
 88,-0.00000014,-0.00000323,0.00000493,0.00000759,0.00000737,0.00000006
 ,-0.00000347,-0.00000168,0.00000223,-0.00000639,0.00000165,-0.00000527
 ,-0.00000559,-0.00000603,0.00001521,-0.00002338,0.00000180,0.00000830,
 0.00000385,0.00000657,-0.00000379,-0.00000574,0.00001223,-0.00000308,0
 .00000679,0.00000371,0.00000057,-0.00000056,0.00000235,-0.00000029,0.0
 0000063,-0.00000671,-0.00000180,-0.00000193,-0.00000846,0.00000137,0.0
 0002475,-0.00000058,-0.00000572,0.00000281,0.00000745,-0.00000523,-0.0
 0000111,0.00000243,-0.00000472,0.00000497,-0.00000981,0.00000947,-0.00
 002382,0.00000219,-0.00000561,0.00001410\\\@


 HE THAT IS UNAWARE OF HIS IGNORANCE WILL BE MISLED BY HIS KNOWLEDGE.

                                        -- WHATLEY
 Job cpu time:       0 days  3 hours 44 minutes  9.8 seconds.
 File lengths (MBytes):  RWF=    285 Int=      0 D2E=      0 Chk=     15 Scr=      1
 Normal termination of Gaussian 09 at Sun Jun 20 23:32:17 2021.
