 Entering Gaussian System, Link 0=g09
 Input=NHC11.gjf
 Output=NHC11.log
 Initial command:
 /usr/local/gqt/g09/l1.exe "/usr/local/gqt/lixogaussian/Gau-8933.inp" -scrdir="/usr/local/gqt/lixogaussian/"
 Entering Link 1 = /usr/local/gqt/g09/l1.exe PID=      8935.
  
 Copyright (c) 1988,1990,1992,1993,1995,1998,2003,2009,2013,
            Gaussian, Inc.  All Rights Reserved.
  
 This is part of the Gaussian(R) 09 program.  It is based on
 the Gaussian(R) 03 system (copyright 2003, Gaussian, Inc.),
 the Gaussian(R) 98 system (copyright 1998, Gaussian, Inc.),
 the Gaussian(R) 94 system (copyright 1995, Gaussian, Inc.),
 the Gaussian 92(TM) system (copyright 1992, Gaussian, Inc.),
 the Gaussian 90(TM) system (copyright 1990, Gaussian, Inc.),
 the Gaussian 88(TM) system (copyright 1988, Gaussian, Inc.),
 the Gaussian 86(TM) system (copyright 1986, Carnegie Mellon
 University), and the Gaussian 82(TM) system (copyright 1983,
 Carnegie Mellon University). Gaussian is a federally registered
 trademark of Gaussian, Inc.
  
 This software contains proprietary and confidential information,
 including trade secrets, belonging to Gaussian, Inc.
  
 This software is provided under written license and may be
 used, copied, transmitted, or stored only in accord with that
 written license.
  
 The following legend is applicable only to US Government
 contracts under FAR:
  
                    RESTRICTED RIGHTS LEGEND
  
 Use, reproduction and disclosure by the US Government is
 subject to restrictions as set forth in subparagraphs (a)
 and (c) of the Commercial Computer Software - Restricted
 Rights clause in FAR 52.227-19.
  
 Gaussian, Inc.
 340 Quinnipiac St., Bldg. 40, Wallingford CT 06492
  
  
 ---------------------------------------------------------------
 Warning -- This program may not be used in any manner that
 competes with the business of Gaussian, Inc. or will provide
 assistance to any competitor of Gaussian, Inc.  The licensee
 of this program is prohibited from giving any competitor of
 Gaussian, Inc. access to this program.  By using this program,
 the user acknowledges that Gaussian, Inc. is engaged in the
 business of creating and licensing software in the field of
 computational chemistry and represents and warrants to the
 licensee that it is not a competitor of Gaussian, Inc. and that
 it will not use this program in any manner prohibited above.
 ---------------------------------------------------------------
  

 Cite this work as:
 Gaussian 09, Revision D.01,
 M. J. Frisch, G. W. Trucks, H. B. Schlegel, G. E. Scuseria, 
 M. A. Robb, J. R. Cheeseman, G. Scalmani, V. Barone, B. Mennucci, 
 G. A. Petersson, H. Nakatsuji, M. Caricato, X. Li, H. P. Hratchian, 
 A. F. Izmaylov, J. Bloino, G. Zheng, J. L. Sonnenberg, M. Hada, 
 M. Ehara, K. Toyota, R. Fukuda, J. Hasegawa, M. Ishida, T. Nakajima, 
 Y. Honda, O. Kitao, H. Nakai, T. Vreven, J. A. Montgomery, Jr., 
 J. E. Peralta, F. Ogliaro, M. Bearpark, J. J. Heyd, E. Brothers, 
 K. N. Kudin, V. N. Staroverov, T. Keith, R. Kobayashi, J. Normand, 
 K. Raghavachari, A. Rendell, J. C. Burant, S. S. Iyengar, J. Tomasi, 
 M. Cossi, N. Rega, J. M. Millam, M. Klene, J. E. Knox, J. B. Cross, 
 V. Bakken, C. Adamo, J. Jaramillo, R. Gomperts, R. E. Stratmann, 
 O. Yazyev, A. J. Austin, R. Cammi, C. Pomelli, J. W. Ochterski, 
 R. L. Martin, K. Morokuma, V. G. Zakrzewski, G. A. Voth, 
 P. Salvador, J. J. Dannenberg, S. Dapprich, A. D. Daniels, 
 O. Farkas, J. B. Foresman, J. V. Ortiz, J. Cioslowski, 
 and D. J. Fox, Gaussian, Inc., Wallingford CT, 2013.
 
 ******************************************
 Gaussian 09:  ES64L-G09RevD.01 24-Apr-2013
                19-Jun-2021 
 ******************************************
 %nprocshared=16
 Will use up to   16 processors via shared memory.
 %mem=25GB
 %chk=NHC11.chk
 ----------------------------------------------------------
 #p opt freq n12sx/6-311+g(d,p) scrf=(iefpcm,solvent=water)
 ----------------------------------------------------------
 1/14=-1,18=20,19=15,26=3,38=1/1,3;
 2/9=110,12=2,17=6,18=5,40=1/2;
 3/5=4,6=6,7=111,11=2,16=1,25=1,30=1,70=2201,71=1,72=1,74=-69/1,2,3;
 4//1;
 5/5=2,38=5,53=1/2;
 6/7=2,8=2,9=2,10=2,28=1/1;
 7//1,2,3,16;
 1/14=-1,18=20,19=15,26=3/3(2);
 2/9=110/2;
 99//99;
 2/9=110/2;
 3/5=4,6=6,7=111,11=2,16=1,25=1,30=1,70=2205,71=1,72=1,74=-69/1,2,3;
 4/5=5,16=3,69=1/1;
 5/5=2,38=5,53=1/2;
 7//1,2,3,16;
 1/14=-1,18=20,19=15,26=3/3(-5);
 2/9=110/2;
 6/7=2,8=2,9=2,10=2,19=2,28=1/1;
 99/9=1/99;
 Leave Link    1 at Sat Jun 19 14:09:57 2021, MaxMem=  3355443200 cpu:         0.7
 (Enter /usr/local/gqt/g09/l101.exe)
 -----
 TITLE
 -----
 Symbolic Z-matrix:
 Charge =  0 Multiplicity = 1
 6                     0.57164   0.85327  -0.11247 
 6                    -0.78882   0.54056  -0.03842 
 7                    -0.8502   -0.84585  -0.00868 
 6                     0.38518  -1.40823  -0.0611 
 7                     1.24015  -0.35937  -0.13488 
 6                     1.01434   2.16714  -0.15098 
 6                     0.05431   3.16632  -0.11905 
 6                    -1.30547   2.85869  -0.05056 
 6                    -1.74742   1.54525  -0.00958 
 6                    -2.06263  -1.6618    0.07083 
 6                    -2.94389  -1.48409  -1.15601 
 6                    -2.80795  -1.43385   1.37677 
 6                     2.70081  -0.4724   -0.13692 
 6                     3.31098   0.14096   1.10823 
 6                     3.27689   0.12198  -1.41329 
 1                     2.06419   2.41055  -0.20127 
 1                     0.36457   4.19997  -0.14679 
 1                    -2.02984   3.65886  -0.02759 
 1                    -2.80128   1.32826   0.04442 
 1                    -1.68111  -2.67965   0.07008 
 1                    -2.3785   -1.6721   -2.06621 
 1                    -3.76972  -2.19121  -1.11625 
 1                    -3.36725  -0.48404  -1.21681 
 1                    -2.14987  -1.59501   2.22791 
 1                    -3.63746  -2.13394   1.45024 
 1                    -3.21622  -0.42814   1.44588 
 1                     2.91264  -1.54068  -0.12315 
 1                     2.88221  -0.29267   2.00884 
 1                     4.38257  -0.04725   1.11204 
 1                     3.14825   1.21477   1.13448 
 1                     2.83593  -0.3371   -2.29583 
 1                     4.35299  -0.03521  -1.44974 
 1                     3.08429   1.193    -1.44939 
 
 NAtoms=     33 NQM=       33 NQMF=       0 NMMI=      0 NMMIF=      0
                NMic=       0 NMicF=      0.
                    Isotopes and Nuclear Properties:
 (Nuclear quadrupole moments (NQMom) in fm**2, nuclear magnetic moments (NMagM)
  in nuclear magnetons)

  Atom         1           2           3           4           5           6           7           8           9          10
 IAtWgt=          12          12          14          12          14          12          12          12          12          12
 AtmWgt=  12.0000000  12.0000000  14.0030740  12.0000000  14.0030740  12.0000000  12.0000000  12.0000000  12.0000000  12.0000000
 NucSpn=           0           0           2           0           2           0           0           0           0           0
 AtZEff=   0.0000000   0.0000000   0.0000000   0.0000000   0.0000000   0.0000000   0.0000000   0.0000000   0.0000000   0.0000000
 NQMom=    0.0000000   0.0000000   2.0440000   0.0000000   2.0440000   0.0000000   0.0000000   0.0000000   0.0000000   0.0000000
 NMagM=    0.0000000   0.0000000   0.4037610   0.0000000   0.4037610   0.0000000   0.0000000   0.0000000   0.0000000   0.0000000
 AtZNuc=   6.0000000   6.0000000   7.0000000   6.0000000   7.0000000   6.0000000   6.0000000   6.0000000   6.0000000   6.0000000

  Atom        11          12          13          14          15          16          17          18          19          20
 IAtWgt=          12          12          12          12          12           1           1           1           1           1
 AtmWgt=  12.0000000  12.0000000  12.0000000  12.0000000  12.0000000   1.0078250   1.0078250   1.0078250   1.0078250   1.0078250
 NucSpn=           0           0           0           0           0           1           1           1           1           1
 AtZEff=   0.0000000   0.0000000   0.0000000   0.0000000   0.0000000   0.0000000   0.0000000   0.0000000   0.0000000   0.0000000
 NQMom=    0.0000000   0.0000000   0.0000000   0.0000000   0.0000000   0.0000000   0.0000000   0.0000000   0.0000000   0.0000000
 NMagM=    0.0000000   0.0000000   0.0000000   0.0000000   0.0000000   2.7928460   2.7928460   2.7928460   2.7928460   2.7928460
 AtZNuc=   6.0000000   6.0000000   6.0000000   6.0000000   6.0000000   1.0000000   1.0000000   1.0000000   1.0000000   1.0000000

  Atom        21          22          23          24          25          26          27          28          29          30
 IAtWgt=           1           1           1           1           1           1           1           1           1           1
 AtmWgt=   1.0078250   1.0078250   1.0078250   1.0078250   1.0078250   1.0078250   1.0078250   1.0078250   1.0078250   1.0078250
 NucSpn=           1           1           1           1           1           1           1           1           1           1
 AtZEff=   0.0000000   0.0000000   0.0000000   0.0000000   0.0000000   0.0000000   0.0000000   0.0000000   0.0000000   0.0000000
 NQMom=    0.0000000   0.0000000   0.0000000   0.0000000   0.0000000   0.0000000   0.0000000   0.0000000   0.0000000   0.0000000
 NMagM=    2.7928460   2.7928460   2.7928460   2.7928460   2.7928460   2.7928460   2.7928460   2.7928460   2.7928460   2.7928460
 AtZNuc=   1.0000000   1.0000000   1.0000000   1.0000000   1.0000000   1.0000000   1.0000000   1.0000000   1.0000000   1.0000000

  Atom        31          32          33
 IAtWgt=           1           1           1
 AtmWgt=   1.0078250   1.0078250   1.0078250
 NucSpn=           1           1           1
 AtZEff=   0.0000000   0.0000000   0.0000000
 NQMom=    0.0000000   0.0000000   0.0000000
 NMagM=    2.7928460   2.7928460   2.7928460
 AtZNuc=   1.0000000   1.0000000   1.0000000
 Leave Link  101 at Sat Jun 19 14:09:57 2021, MaxMem=  3355443200 cpu:         6.9
 (Enter /usr/local/gqt/g09/l103.exe)

 GradGradGradGradGradGradGradGradGradGradGradGradGradGradGradGradGradGrad
 Berny optimization.
 Initialization pass.
                           ----------------------------
                           !    Initial Parameters    !
                           ! (Angstroms and Degrees)  !
 --------------------------                            --------------------------
 ! Name  Definition              Value          Derivative Info.                !
 --------------------------------------------------------------------------------
 ! R1    R(1,2)                  1.3979         estimate D2E/DX2                !
 ! R2    R(1,5)                  1.3849         estimate D2E/DX2                !
 ! R3    R(1,6)                  1.387          estimate D2E/DX2                !
 ! R4    R(2,3)                  1.3881         estimate D2E/DX2                !
 ! R5    R(2,9)                  1.3889         estimate D2E/DX2                !
 ! R6    R(3,4)                  1.3584         estimate D2E/DX2                !
 ! R7    R(3,10)                 1.4636         estimate D2E/DX2                !
 ! R8    R(4,5)                  1.3552         estimate D2E/DX2                !
 ! R9    R(5,13)                 1.465          estimate D2E/DX2                !
 ! R10   R(6,7)                  1.386          estimate D2E/DX2                !
 ! R11   R(6,16)                 1.0789         estimate D2E/DX2                !
 ! R12   R(7,8)                  1.3958         estimate D2E/DX2                !
 ! R13   R(7,17)                 1.0796         estimate D2E/DX2                !
 ! R14   R(8,9)                  1.3864         estimate D2E/DX2                !
 ! R15   R(8,18)                 1.0796         estimate D2E/DX2                !
 ! R16   R(9,19)                 1.0773         estimate D2E/DX2                !
 ! R17   R(10,11)                1.521          estimate D2E/DX2                !
 ! R18   R(10,12)                1.5208         estimate D2E/DX2                !
 ! R19   R(10,20)                1.087          estimate D2E/DX2                !
 ! R20   R(11,21)                1.0879         estimate D2E/DX2                !
 ! R21   R(11,22)                1.0879         estimate D2E/DX2                !
 ! R22   R(11,23)                1.0877         estimate D2E/DX2                !
 ! R23   R(12,24)                1.0879         estimate D2E/DX2                !
 ! R24   R(12,25)                1.0879         estimate D2E/DX2                !
 ! R25   R(12,26)                1.0876         estimate D2E/DX2                !
 ! R26   R(13,14)                1.5162         estimate D2E/DX2                !
 ! R27   R(13,15)                1.5213         estimate D2E/DX2                !
 ! R28   R(13,27)                1.0892         estimate D2E/DX2                !
 ! R29   R(14,28)                1.0877         estimate D2E/DX2                !
 ! R30   R(14,29)                1.088          estimate D2E/DX2                !
 ! R31   R(14,30)                1.0864         estimate D2E/DX2                !
 ! R32   R(15,31)                1.0882         estimate D2E/DX2                !
 ! R33   R(15,32)                1.0881         estimate D2E/DX2                !
 ! R34   R(15,33)                1.0888         estimate D2E/DX2                !
 ! A1    A(2,1,5)              105.9478         estimate D2E/DX2                !
 ! A2    A(2,1,6)              121.602          estimate D2E/DX2                !
 ! A3    A(5,1,6)              132.4502         estimate D2E/DX2                !
 ! A4    A(1,2,3)              105.5217         estimate D2E/DX2                !
 ! A5    A(1,2,9)              120.7282         estimate D2E/DX2                !
 ! A6    A(3,2,9)              133.75           estimate D2E/DX2                !
 ! A7    A(2,3,4)              111.8682         estimate D2E/DX2                !
 ! A8    A(2,3,10)             126.4859         estimate D2E/DX2                !
 ! A9    A(4,3,10)             121.6459         estimate D2E/DX2                !
 ! A10   A(3,4,5)              104.7991         estimate D2E/DX2                !
 ! A11   A(1,5,4)              111.8566         estimate D2E/DX2                !
 ! A12   A(1,5,13)             123.2883         estimate D2E/DX2                !
 ! A13   A(4,5,13)             124.7063         estimate D2E/DX2                !
 ! A14   A(1,6,7)              117.4633         estimate D2E/DX2                !
 ! A15   A(1,6,16)             121.7097         estimate D2E/DX2                !
 ! A16   A(7,6,16)             120.8268         estimate D2E/DX2                !
 ! A17   A(6,7,8)              121.1321         estimate D2E/DX2                !
 ! A18   A(6,7,17)             119.3791         estimate D2E/DX2                !
 ! A19   A(8,7,17)             119.4888         estimate D2E/DX2                !
 ! A20   A(7,8,9)              121.3853         estimate D2E/DX2                !
 ! A21   A(7,8,18)             119.4286         estimate D2E/DX2                !
 ! A22   A(9,8,18)             119.1861         estimate D2E/DX2                !
 ! A23   A(2,9,8)              117.688          estimate D2E/DX2                !
 ! A24   A(2,9,19)             122.0382         estimate D2E/DX2                !
 ! A25   A(8,9,19)             120.2738         estimate D2E/DX2                !
 ! A26   A(3,10,11)            111.7785         estimate D2E/DX2                !
 ! A27   A(3,10,12)            111.6575         estimate D2E/DX2                !
 ! A28   A(3,10,20)            103.3701         estimate D2E/DX2                !
 ! A29   A(11,10,12)           113.0278         estimate D2E/DX2                !
 ! A30   A(11,10,20)           108.1929         estimate D2E/DX2                !
 ! A31   A(12,10,20)           108.2374         estimate D2E/DX2                !
 ! A32   A(10,11,21)           110.705          estimate D2E/DX2                !
 ! A33   A(10,11,22)           109.536          estimate D2E/DX2                !
 ! A34   A(10,11,23)           112.2124         estimate D2E/DX2                !
 ! A35   A(21,11,22)           108.2252         estimate D2E/DX2                !
 ! A36   A(21,11,23)           108.3257         estimate D2E/DX2                !
 ! A37   A(22,11,23)           107.7099         estimate D2E/DX2                !
 ! A38   A(10,12,24)           110.6817         estimate D2E/DX2                !
 ! A39   A(10,12,25)           109.5844         estimate D2E/DX2                !
 ! A40   A(10,12,26)           112.1558         estimate D2E/DX2                !
 ! A41   A(24,12,25)           108.2437         estimate D2E/DX2                !
 ! A42   A(24,12,26)           108.3214         estimate D2E/DX2                !
 ! A43   A(25,12,26)           107.7301         estimate D2E/DX2                !
 ! A44   A(5,13,14)            111.6462         estimate D2E/DX2                !
 ! A45   A(5,13,15)            110.4004         estimate D2E/DX2                !
 ! A46   A(5,13,27)            105.6379         estimate D2E/DX2                !
 ! A47   A(14,13,15)           112.2451         estimate D2E/DX2                !
 ! A48   A(14,13,27)           107.9461         estimate D2E/DX2                !
 ! A49   A(15,13,27)           108.674          estimate D2E/DX2                !
 ! A50   A(13,14,28)           111.1046         estimate D2E/DX2                !
 ! A51   A(13,14,29)           109.2236         estimate D2E/DX2                !
 ! A52   A(13,14,30)           111.0642         estimate D2E/DX2                !
 ! A53   A(28,14,29)           108.4454         estimate D2E/DX2                !
 ! A54   A(28,14,30)           108.3617         estimate D2E/DX2                !
 ! A55   A(29,14,30)           108.5682         estimate D2E/DX2                !
 ! A56   A(13,15,31)           111.2341         estimate D2E/DX2                !
 ! A57   A(13,15,32)           110.2525         estimate D2E/DX2                !
 ! A58   A(13,15,33)           110.1918         estimate D2E/DX2                !
 ! A59   A(31,15,32)           108.2187         estimate D2E/DX2                !
 ! A60   A(31,15,33)           108.447          estimate D2E/DX2                !
 ! A61   A(32,15,33)           108.4169         estimate D2E/DX2                !
 ! D1    D(5,1,2,3)              0.5292         estimate D2E/DX2                !
 ! D2    D(5,1,2,9)           -179.4823         estimate D2E/DX2                !
 ! D3    D(6,1,2,3)           -179.5686         estimate D2E/DX2                !
 ! D4    D(6,1,2,9)              0.4199         estimate D2E/DX2                !
 ! D5    D(2,1,5,4)             -0.843          estimate D2E/DX2                !
 ! D6    D(2,1,5,13)          -176.5934         estimate D2E/DX2                !
 ! D7    D(6,1,5,4)            179.2699         estimate D2E/DX2                !
 ! D8    D(6,1,5,13)             3.5195         estimate D2E/DX2                !
 ! D9    D(2,1,6,7)             -0.2709         estimate D2E/DX2                !
 ! D10   D(2,1,6,16)           179.5712         estimate D2E/DX2                !
 ! D11   D(5,1,6,7)            179.6017         estimate D2E/DX2                !
 ! D12   D(5,1,6,16)            -0.5562         estimate D2E/DX2                !
 ! D13   D(1,2,3,4)             -0.0666         estimate D2E/DX2                !
 ! D14   D(1,2,3,10)           179.8453         estimate D2E/DX2                !
 ! D15   D(9,2,3,4)            179.947          estimate D2E/DX2                !
 ! D16   D(9,2,3,10)            -0.1411         estimate D2E/DX2                !
 ! D17   D(1,2,9,8)             -0.2865         estimate D2E/DX2                !
 ! D18   D(1,2,9,19)           179.8195         estimate D2E/DX2                !
 ! D19   D(3,2,9,8)            179.6983         estimate D2E/DX2                !
 ! D20   D(3,2,9,19)            -0.1957         estimate D2E/DX2                !
 ! D21   D(2,3,4,5)             -0.4326         estimate D2E/DX2                !
 ! D22   D(10,3,4,5)           179.6506         estimate D2E/DX2                !
 ! D23   D(2,3,10,11)           63.856          estimate D2E/DX2                !
 ! D24   D(2,3,10,12)          -63.8705         estimate D2E/DX2                !
 ! D25   D(2,3,10,20)          179.9945         estimate D2E/DX2                !
 ! D26   D(4,3,10,11)         -116.2401         estimate D2E/DX2                !
 ! D27   D(4,3,10,12)          116.0334         estimate D2E/DX2                !
 ! D28   D(4,3,10,20)           -0.1016         estimate D2E/DX2                !
 ! D29   D(3,4,5,1)              0.7891         estimate D2E/DX2                !
 ! D30   D(3,4,5,13)           176.4678         estimate D2E/DX2                !
 ! D31   D(1,5,13,14)           61.0818         estimate D2E/DX2                !
 ! D32   D(1,5,13,15)          -64.5195         estimate D2E/DX2                !
 ! D33   D(1,5,13,27)          178.1681         estimate D2E/DX2                !
 ! D34   D(4,5,13,14)         -114.1192         estimate D2E/DX2                !
 ! D35   D(4,5,13,15)          120.2795         estimate D2E/DX2                !
 ! D36   D(4,5,13,27)            2.967          estimate D2E/DX2                !
 ! D37   D(1,6,7,8)              0.0086         estimate D2E/DX2                !
 ! D38   D(1,6,7,17)           179.9538         estimate D2E/DX2                !
 ! D39   D(16,6,7,8)          -179.835          estimate D2E/DX2                !
 ! D40   D(16,6,7,17)            0.1102         estimate D2E/DX2                !
 ! D41   D(6,7,8,9)              0.1128         estimate D2E/DX2                !
 ! D42   D(6,7,8,18)          -179.9699         estimate D2E/DX2                !
 ! D43   D(17,7,8,9)          -179.8323         estimate D2E/DX2                !
 ! D44   D(17,7,8,18)            0.085          estimate D2E/DX2                !
 ! D45   D(7,8,9,2)              0.0274         estimate D2E/DX2                !
 ! D46   D(7,8,9,19)           179.9233         estimate D2E/DX2                !
 ! D47   D(18,8,9,2)          -179.8901         estimate D2E/DX2                !
 ! D48   D(18,8,9,19)            0.0059         estimate D2E/DX2                !
 ! D49   D(3,10,11,21)          53.981          estimate D2E/DX2                !
 ! D50   D(3,10,11,22)         173.2482         estimate D2E/DX2                !
 ! D51   D(3,10,11,23)         -67.1779         estimate D2E/DX2                !
 ! D52   D(12,10,11,21)       -179.0304         estimate D2E/DX2                !
 ! D53   D(12,10,11,22)        -59.7632         estimate D2E/DX2                !
 ! D54   D(12,10,11,23)         59.8107         estimate D2E/DX2                !
 ! D55   D(20,10,11,21)        -59.1866         estimate D2E/DX2                !
 ! D56   D(20,10,11,22)         60.0806         estimate D2E/DX2                !
 ! D57   D(20,10,11,23)        179.6545         estimate D2E/DX2                !
 ! D58   D(3,10,12,24)         -54.3839         estimate D2E/DX2                !
 ! D59   D(3,10,12,25)        -173.6903         estimate D2E/DX2                !
 ! D60   D(3,10,12,26)          66.7142         estimate D2E/DX2                !
 ! D61   D(11,10,12,24)        178.5636         estimate D2E/DX2                !
 ! D62   D(11,10,12,25)         59.2572         estimate D2E/DX2                !
 ! D63   D(11,10,12,26)        -60.3383         estimate D2E/DX2                !
 ! D64   D(20,10,12,24)         58.7454         estimate D2E/DX2                !
 ! D65   D(20,10,12,25)        -60.561          estimate D2E/DX2                !
 ! D66   D(20,10,12,26)        179.8435         estimate D2E/DX2                !
 ! D67   D(5,13,14,28)          55.0894         estimate D2E/DX2                !
 ! D68   D(5,13,14,29)         174.6776         estimate D2E/DX2                !
 ! D69   D(5,13,14,30)         -65.6074         estimate D2E/DX2                !
 ! D70   D(15,13,14,28)        179.6657         estimate D2E/DX2                !
 ! D71   D(15,13,14,29)        -60.7461         estimate D2E/DX2                !
 ! D72   D(15,13,14,30)         58.9689         estimate D2E/DX2                !
 ! D73   D(27,13,14,28)        -60.5925         estimate D2E/DX2                !
 ! D74   D(27,13,14,29)         58.9956         estimate D2E/DX2                !
 ! D75   D(27,13,14,30)        178.7107         estimate D2E/DX2                !
 ! D76   D(5,13,15,31)         -55.3597         estimate D2E/DX2                !
 ! D77   D(5,13,15,32)        -175.4184         estimate D2E/DX2                !
 ! D78   D(5,13,15,33)          64.9453         estimate D2E/DX2                !
 ! D79   D(14,13,15,31)        179.3781         estimate D2E/DX2                !
 ! D80   D(14,13,15,32)         59.3195         estimate D2E/DX2                !
 ! D81   D(14,13,15,33)        -60.3168         estimate D2E/DX2                !
 ! D82   D(27,13,15,31)         60.0617         estimate D2E/DX2                !
 ! D83   D(27,13,15,32)        -59.997          estimate D2E/DX2                !
 ! D84   D(27,13,15,33)       -179.6333         estimate D2E/DX2                !
 --------------------------------------------------------------------------------
 Trust Radius=3.00D-01 FncErr=1.00D-07 GrdErr=1.00D-06
 Number of steps in this run=    189 maximum allowed number of steps=    198.
 GradGradGradGradGradGradGradGradGradGradGradGradGradGradGradGradGradGrad

 Leave Link  103 at Sat Jun 19 14:09:57 2021, MaxMem=  3355443200 cpu:         0.1
 (Enter /usr/local/gqt/g09/l202.exe)
                          Input orientation:                          
 ---------------------------------------------------------------------
 Center     Atomic      Atomic             Coordinates (Angstroms)
 Number     Number       Type             X           Y           Z
 ---------------------------------------------------------------------
      1          6           0        0.571643    0.853273   -0.112468
      2          6           0       -0.788819    0.540556   -0.038420
      3          7           0       -0.850198   -0.845846   -0.008677
      4          6           0        0.385177   -1.408232   -0.061100
      5          7           0        1.240145   -0.359368   -0.134882
      6          6           0        1.014339    2.167136   -0.150977
      7          6           0        0.054308    3.166322   -0.119053
      8          6           0       -1.305469    2.858690   -0.050562
      9          6           0       -1.747424    1.545249   -0.009575
     10          6           0       -2.062632   -1.661804    0.070833
     11          6           0       -2.943894   -1.484090   -1.156009
     12          6           0       -2.807946   -1.433847    1.376769
     13          6           0        2.700812   -0.472396   -0.136922
     14          6           0        3.310979    0.140963    1.108229
     15          6           0        3.276893    0.121981   -1.413292
     16          1           0        2.064188    2.410550   -0.201265
     17          1           0        0.364567    4.199966   -0.146794
     18          1           0       -2.029844    3.658855   -0.027593
     19          1           0       -2.801279    1.328259    0.044423
     20          1           0       -1.681107   -2.679652    0.070082
     21          1           0       -2.378503   -1.672100   -2.066213
     22          1           0       -3.769724   -2.191212   -1.116255
     23          1           0       -3.367245   -0.484035   -1.216810
     24          1           0       -2.149867   -1.595006    2.227911
     25          1           0       -3.637460   -2.133941    1.450242
     26          1           0       -3.216218   -0.428140    1.445876
     27          1           0        2.912638   -1.540677   -0.123145
     28          1           0        2.882207   -0.292673    2.008841
     29          1           0        4.382571   -0.047250    1.112042
     30          1           0        3.148249    1.214772    1.134481
     31          1           0        2.835931   -0.337104   -2.295830
     32          1           0        4.352991   -0.035210   -1.449739
     33          1           0        3.084292    1.192999   -1.449394
 ---------------------------------------------------------------------
                    Distance matrix (angstroms):
                    1          2          3          4          5
     1  C    0.000000
     2  C    1.397903   0.000000
     3  N    2.217974   1.388079   0.000000
     4  C    2.269761   2.275205   1.358373   0.000000
     5  N    1.384881   2.221680   2.149912   1.355186   0.000000
     6  C    1.386975   2.431010   3.546098   3.631416   2.536626
     7  C    2.370206   2.758987   4.114342   4.586870   3.719805
     8  C    2.747559   2.375041   3.732642   4.589664   4.104042
     9  C    2.422290   1.388943   2.553889   3.643308   3.545255
    10  C    3.646727   2.546552   1.463593   2.464442   3.556261
    11  C    4.348706   3.161099   2.471293   3.505324   4.451279
    12  C    4.344004   3.158782   2.469409   3.502022   4.452711
    13  C    2.508258   3.635010   3.572896   2.498740   1.465035
    14  C    3.082442   4.275842   4.420030   3.511076   2.466579
    15  C    3.089548   4.312249   4.465704   3.540056   2.452421
    16  H    2.158862   3.415120   4.374340   4.173945   2.890657
    17  H    3.353269   3.838401   5.191816   5.608891   4.642661
    18  H    3.827039   3.356196   4.656635   5.613272   5.181742
    19  H    3.409814   2.162715   2.921689   4.201550   4.383303
    20  H    4.194016   3.343305   2.014809   2.429660   3.736234
    21  H    4.347182   3.396305   2.692929   3.424621   4.306729
    22  H    5.396661   4.184505   3.400055   4.357707   5.423793
    23  H    4.303813   3.014410   2.815318   4.033668   4.734359
    24  H    4.344889   3.398431   2.693085   3.420658   4.312977
    25  H    5.392778   4.181364   3.399480   4.358029   5.427040
    26  H    4.291660   3.005623   2.808603   4.025121   4.728921
    27  H    3.348338   4.247292   3.828162   2.531689   2.047647
    28  H    3.339439   4.285088   4.278694   3.429911   2.701178
    29  H    4.102870   5.330324   5.410697   4.382658   3.395155
    30  H    2.885214   4.163024   4.641178   3.993010   2.780298
    31  H    3.363193   4.359472   4.367772   3.485331   2.686396
    32  H    4.108076   5.362978   5.459576   4.422336   3.394663
    33  H    2.866389   4.173429   4.659695   3.997372   2.745662
                    6          7          8          9         10
     6  C    0.000000
     7  C    1.386020   0.000000
     8  C    2.422775   1.395823   0.000000
     9  C    2.834444   2.426129   1.386410   0.000000
    10  C    4.917086   5.275253   4.585073   3.223509   0.000000
    11  C    5.478061   5.629460   4.771393   3.452933   1.520969
    12  C    5.469090   5.620635   4.766611   3.452777   1.520831
    13  C    3.132334   4.499397   5.210938   4.886094   4.914087
    14  C    3.311425   4.611391   5.480915   5.367397   5.762105
    15  C    3.300795   4.618237   5.508597   5.407390   5.821945
    16  H    1.078871   2.148853   3.402665   3.913295   5.804201
    17  H    2.134155   1.079560   2.144132   3.395123   6.348150
    18  H    3.392271   2.143512   1.079588   2.132467   5.321670
    19  H    3.911628   3.399938   2.142122   1.077316   3.080061
    20  H    5.550284   6.101053   5.552377   4.226172   1.087003
    21  H    5.469848   5.755026   5.073688   3.870317   2.160288
    22  H    6.543257   6.657387   5.719245   4.390396   2.145603
    23  H    5.230964   5.122226   4.096934   2.863430   2.178802
    24  H    5.461229   5.747771   5.073446   3.876791   2.159874
    25  H    6.534707   6.647152   5.711126   4.386313   2.146105
    26  H    5.213733   5.105438   4.085773   2.858314   2.177942
    27  H    4.165596   5.506896   6.095254   5.590350   4.980523
    28  H    3.768873   4.948696   5.631062   5.374518   5.484690
    29  H    4.224182   5.529603   6.492298   6.432023   6.725440
    30  H    2.667015   3.866829   4.893097   5.038421   6.046430
    31  H    3.766936   4.974915   5.692584   5.456863   5.599272
    32  H    4.205200   5.522608   6.507728   6.464285   6.791036
    33  H    2.630500   3.852870   4.899107   5.053972   6.078800
                   11         12         13         14         15
    11  C    0.000000
    12  C    2.536921   0.000000
    13  C    5.824497   5.793277   0.000000
    14  C    6.847701   6.324032   1.516217   0.000000
    15  C    6.429918   6.872431   1.521274   2.521822   0.000000
    16  H    6.415656   6.403692   2.953101   2.901773   2.859582
    17  H    6.653790   6.642735   5.223897   5.170294   5.168715
    18  H    5.344033   5.339784   6.281584   6.495387   6.526185
    19  H    3.061157   3.066663   5.792085   6.316728   6.365863
    20  H    2.127745   2.128198   4.910809   5.827052   5.884837
    21  H    1.087881   3.477831   5.564251   6.762728   5.968965
    22  H    1.087932   2.777371   6.766185   7.779699   7.422527
    23  H    1.087673   2.818086   6.163409   7.098951   6.674611
    24  H    3.477599   1.087880   5.511967   5.838503   6.756932
    25  H    2.774146   1.087945   6.741922   7.319356   7.816475
    26  H    2.821169   1.087616   6.125231   6.560654   7.116036
    27  H    5.947182   5.914916   1.089166   2.121997   2.135788
    28  H    6.736409   5.837776   2.160904   1.087652   3.469684
    29  H    7.802926   7.327774   2.137516   1.088002   2.761969
    30  H    7.045878   6.523047   2.159445   1.086387   2.775227
    31  H    6.001762   6.822329   2.167359   3.470135   1.088155
    32  H    7.445137   7.824599   2.155067   2.767675   1.088129
    33  H    6.602416   7.043151   2.154804   2.774815   1.088796
                   16         17         18         19         20
    16  H    0.000000
    17  H    2.468540   0.000000
    18  H    4.283635   2.457685   0.000000
    19  H    4.990439   4.278533   2.456008   0.000000
    20  H    6.325426   7.180596   6.348845   4.161586   0.000000
    21  H    6.315344   6.759420   5.718095   3.692652   2.462779
    22  H    7.486518   7.673290   6.199649   3.830370   2.451181
    23  H    6.237822   6.083685   4.512917   2.279350   3.052849
    24  H    6.301082   6.748578   5.718807   3.706405   2.460166
    25  H    7.475872   7.660622   6.190712   3.829145   2.455598
    26  H    6.217228   6.064485   4.503568   2.284991   3.052652
    27  H    4.042049   6.280780   7.174426   6.395914   4.736781
    28  H    3.586243   5.582927   6.624944   6.228031   5.502753
    29  H    3.624977   5.980625   7.493534   7.391856   6.692041
    30  H    2.095063   4.278076   5.842654   6.049627   6.294613
    31  H    3.540112   5.595623   6.692410   6.326796   5.611480
    32  H    3.574779   5.961703   7.510605   7.434726   6.761159
    33  H    2.020115   4.258582   5.852892   6.073691   6.325761
                   21         22         23         24         25
    21  H    0.000000
    22  H    1.762780   0.000000
    23  H    1.763688   1.756859   0.000000
    24  H    4.300897   3.763355   3.818687   0.000000
    25  H    3.763473   2.570541   3.147757   1.762995   0.000000
    26  H    3.818897   3.159004   2.667551   1.763593   1.757049
    27  H    5.638169   6.787004   6.461387   5.582058   6.762491
    28  H    6.795878   7.590709   7.035417   5.202483   6.797673
    29  H    7.645493   8.719048   8.103949   6.805400   8.293947
    30  H    7.008813   8.032738   7.132052   6.095939   7.573600
    31  H    5.387509   6.961594   6.298036   6.848703   7.691974
    32  H    6.955031   8.410592   7.736779   7.631856   8.755676
    33  H    6.199305   7.651235   6.669997   6.977962   8.041042
                   26         27         28         29         30
    26  H    0.000000
    27  H    6.423584   0.000000
    28  H    6.125852   2.470589   0.000000
    29  H    7.615650   2.432430   1.765099   0.000000
    30  H    6.580468   3.038031   1.762859   1.765434   0.000000
    31  H    7.115979   2.484961   4.305150   3.753626   3.777949
    32  H    8.113686   2.470000   3.767130   2.561980   3.113206
    33  H    7.120892   3.043252   3.769277   3.128050   2.584758
                   31         32         33
    31  H    0.000000
    32  H    1.763089   0.000000
    33  H    1.766169   1.765813   0.000000
 Stoichiometry    C13H18N2
 Framework group  C1[X(C13H18N2)]
 Deg. of freedom    93
 Full point group                 C1      NOp   1
 Largest Abelian subgroup         C1      NOp   1
 Largest concise Abelian subgroup C1      NOp   1
                         Standard orientation:                         
 ---------------------------------------------------------------------
 Center     Atomic      Atomic             Coordinates (Angstroms)
 Number     Number       Type             X           Y           Z
 ---------------------------------------------------------------------
      1          6           0        0.712343    0.484986   -0.022414
      2          6           0       -0.684244    0.544083   -0.008852
      3          7           0       -1.111991   -0.776429   -0.015476
      4          6           0       -0.068697   -1.646132   -0.033718
      5          7           0        1.035990   -0.861292   -0.048584
      6          6           0        1.488565    1.634359   -0.011539
      7          6           0        0.827128    2.852220    0.007600
      8          6           0       -0.567208    2.916111    0.015761
      9          6           0       -1.342714    1.766914    0.007401
     10          6           0       -2.499558   -1.241842   -0.003044
     11          6           0       -3.247524   -0.820008   -1.258412
     12          6           0       -3.214407   -0.841437    1.278203
     13          6           0        2.413143   -1.358375    0.003245
     14          6           0        3.108759   -0.945855    1.285766
     15          6           0        3.181550   -0.921510   -1.234888
     16          1           0        2.566546    1.590683   -0.015106
     17          1           0        1.401064    3.766526    0.017233
     18          1           0       -1.053983    3.879621    0.030217
     19          1           0       -2.417715    1.837077    0.015166
     20          1           0       -2.401687   -2.324376   -0.013930
     21          1           0       -2.712771   -1.139364   -2.150341
     22          1           0       -4.232109   -1.282714   -1.268038
     23          1           0       -3.387697    0.257309   -1.311070
     24          1           0       -2.660552   -1.183001    2.150018
     25          1           0       -4.202158   -1.296839    1.302289
     26          1           0       -3.344258    0.235590    1.356039
     27          1           0        2.333549   -2.444621   -0.000944
     28          1           0        2.541326   -1.261913    2.158185
     29          1           0        4.090953   -1.412098    1.326514
     30          1           0        3.235352    0.132140    1.331980
     31          1           0        2.673885   -1.235110   -2.144840
     32          1           0        4.178071   -1.358510   -1.233423
     33          1           0        3.281367    0.162563   -1.252189
 ---------------------------------------------------------------------
 Rotational constants (GHZ):      0.8801681      0.4974038      0.3683207
 Leave Link  202 at Sat Jun 19 14:09:57 2021, MaxMem=  3355443200 cpu:         0.0
 (Enter /usr/local/gqt/g09/l301.exe)
 Standard basis: 6-311+G(d,p) (5D, 7F)
 Ernie: Thresh=  0.10000D-02 Tol=  0.10000D-05 Strict=F.
 There are   453 symmetry adapted cartesian basis functions of A   symmetry.
 There are   438 symmetry adapted basis functions of A   symmetry.
   438 basis functions,   684 primitive gaussians,   453 cartesian basis functions
    55 alpha electrons       55 beta electrons
       nuclear repulsion energy      1015.1635933682 Hartrees.
 IExCor= 5547 DFT=T Ex+Corr=N12SX ExCW=0 ScaHFX=  0.250000
 ScaDFX=  1.000000  1.000000  1.000000  1.000000 ScalE2=  1.000000  1.000000
 IRadAn=      0 IRanWt=     -1 IRanGd=            0 ICorTp=0 IEmpDi=  4
  HFx wShort=  0.110000 wLong=  0.000000 cFull=  0.000000 cShort=  1.000000 cLong=  0.000000
  DFx wShort=  0.110000 wLong=  0.000000 cFull=  0.000000 cShort=  1.000000 cLong=  0.000000
 NAtoms=   33 NActive=   33 NUniq=   33 SFac= 1.00D+00 NAtFMM=   60 NAOKFM=F Big=F
 Integral buffers will be    131072 words long.
 Raffenetti 2 integral format.
 Two-electron integral symmetry is turned on.
 ------------------------------------------------------------------------------
 Polarizable Continuum Model (PCM)
 =================================
 Model                : PCM (using non-symmetric T matrix).
 Atomic radii         : UFF (Universal Force Field).
 Polarization charges : Total charges.
 Charge compensation  : None.
 Solution method      : On-the-fly selection.
 Cavity type          : Scaled VdW (van der Waals Surface) (Alpha=1.100).
 Cavity algorithm     : GePol (No added spheres)
                        Default sphere list used, NSphG=   33.
                        Lebedev-Laikov grids with approx.  5.0 points / Ang**2.
                        Smoothing algorithm: Karplus/York (Gamma=1.0000).
                        Polarization charges: spherical gaussians, with
                                              point-specific exponents (IZeta= 3).
                        Self-potential: point-specific (ISelfS= 7).
                        Self-field    : sphere-specific E.n sum rule (ISelfD= 2).
 1st derivatives      : Analytical E(r).r(x)/FMM algorithm (CHGder, D1EAlg=3).
                        Cavity 1st derivative terms included.
 Solvent              : Water, Eps=  78.355300 Eps(inf)=   1.777849
 ------------------------------------------------------------------------------
 GePol: Number of generator spheres                  =      33
 GePol: Total number of spheres                      =      33
 GePol: Number of exposed spheres                    =      33 (100.00%)
 GePol: Number of points                             =    2268
 GePol: Average weight of points                     =       0.13
 GePol: Minimum weight of points                     =   0.92D-10
 GePol: Maximum weight of points                     =    0.20577
 GePol: Number of points with low weight             =     160
 GePol: Fraction of low-weight points (<1% of avg)   =       7.05%
 GePol: Cavity surface area                          =    293.297 Ang**2
 GePol: Cavity volume                                =    316.435 Ang**3
 Leave Link  301 at Sat Jun 19 14:09:57 2021, MaxMem=  3355443200 cpu:         0.7
 (Enter /usr/local/gqt/g09/l302.exe)
 NPDir=0 NMtPBC=     1 NCelOv=     1 NCel=       1 NClECP=     1 NCelD=      1
         NCelK=      1 NCelE2=     1 NClLst=     1 CellRange=     0.0.
 One-electron integrals computed using PRISM.
 NBasis=   438 RedAO= T EigKep=  2.62D-06  NBF=   438
 NBsUse=   436 1.00D-06 EigRej=  7.85D-07 NBFU=   436
 Precomputing XC quadrature grid using
 IXCGrd= 4 IRadAn=           0 IRanWt=          -1 IRanGd=           0 AccXCQ= 0.00D+00.
 Generated NRdTot=       0 NPtTot=           0 NUsed=           0 NTot=          32
 NSgBfM=   452   452   452   452   452 MxSgAt=    33 MxSgA2=    33.
 Leave Link  302 at Sat Jun 19 14:09:58 2021, MaxMem=  3355443200 cpu:         8.6
 (Enter /usr/local/gqt/g09/l303.exe)
 DipDrv:  MaxL=1.
 Leave Link  303 at Sat Jun 19 14:09:58 2021, MaxMem=  3355443200 cpu:         0.9
 (Enter /usr/local/gqt/g09/l401.exe)
 ExpMin= 4.38D-02 ExpMax= 6.29D+03 ExpMxC= 9.49D+02 IAcc=2 IRadAn=         4 AccDes= 0.00D+00
 Harris functional with IExCor= 5547 and IRadAn=       4 diagonalized for initial guess.
 HarFok:  IExCor= 5547 AccDes= 0.00D+00 IRadAn=         4 IDoV= 1 UseB2=F ITyADJ=14
 ICtDFT=  3500011 ScaDFX=  1.000000  1.000000  1.000000  1.000000
 FoFCou: FMM=F IPFlag=           0 FMFlag=      100000 FMFlg1=           0
         NFxFlg=           0 DoJE=T BraDBF=F KetDBF=T FulRan=T
         wScrn=  0.000000 ICntrl=     500 IOpCl=  0 I1Cent=   200000004 NGrid=           0
         NMat0=    1 NMatS0=      1 NMatT0=    0 NMatD0=    1 NMtDS0=    0 NMtDT0=    0
 Petite list used in FoFCou.
 Harris En= -595.845245362389    
 JPrj=0 DoOrth=F DoCkMO=F.
 Leave Link  401 at Sat Jun 19 14:10:00 2021, MaxMem=  3355443200 cpu:        28.8
 (Enter /usr/local/gqt/g09/l502.exe)
 Closed shell SCF:
 Using DIIS extrapolation, IDIIS=  1040.
 Integral symmetry usage will be decided dynamically.
 IVT=      644809 IEndB=      644809 NGot=  3355443200 MDV=  3355020694
 LenX=  3355020694 LenY=  3354815032
 Requested convergence on RMS density matrix=1.00D-08 within 128 cycles.
 Requested convergence on MAX density matrix=1.00D-06.
 Requested convergence on             energy=1.00D-06.
 No special actions if energy rises.
 Fock matrices will be formed incrementally for  20 cycles.

 Cycle   1  Pass 1  IDiag  1:
 FoFJK:  IHMeth= 1 ICntrl=       0 DoSepK=T KAlg= 0 I1Cent=   0 FoldK=F
 IRaf=         1 NMat=   1 IRICut=       1 DoRegI=T DoRafI=F ISym2E= 0.
 FoFCou: FMM=F IPFlag=           0 FMFlag=      100000 FMFlg1=           0
         NFxFlg=           0 DoJE=T BraDBF=F KetDBF=F FulRan=T
         wScrn=  0.000000 ICntrl=     500 IOpCl=  0 I1Cent=           0 NGrid=           0
         NMat0=    1 NMatS0=      1 NMatT0=    0 NMatD0=    1 NMtDS0=    0 NMtDT0=    0
 Symmetry not used in FoFCou.
 Inv3:  Mode=1 IEnd=    15431472.
 Iteration    1 A*A^-1 deviation from unit magnitude is 6.22D-15 for    302.
 Iteration    1 A*A^-1 deviation from orthogonality  is 2.97D-15 for   1805    300.
 Iteration    1 A^-1*A deviation from unit magnitude is 6.22D-15 for    586.
 Iteration    1 A^-1*A deviation from orthogonality  is 1.12D-08 for   2136   1584.
 Iteration    2 A*A^-1 deviation from unit magnitude is 8.88D-15 for    620.
 Iteration    2 A*A^-1 deviation from orthogonality  is 5.62D-15 for   1406    589.
 Iteration    2 A^-1*A deviation from unit magnitude is 1.33D-15 for    128.
 Iteration    2 A^-1*A deviation from orthogonality  is 4.22D-16 for   1725    647.
 E= -615.324957102834    
 DIIS: error= 8.58D-02 at cycle   1 NSaved=   1.
 NSaved= 1 IEnMin= 1 EnMin= -615.324957102834     IErMin= 1 ErrMin= 8.58D-02
 ErrMax= 8.58D-02  0.00D+00 EMaxC= 1.00D-01 BMatC= 1.53D+00 BMatP= 1.53D+00
 IDIUse=3 WtCom= 1.42D-01 WtEn= 8.58D-01
 Coeff-Com:  0.100D+01
 Coeff-En:   0.100D+01
 Coeff:      0.100D+01
 Gap=     0.235 Goal=   None    Shift=    0.000
 GapD=    0.235 DampG=1.000 DampE=0.500 DampFc=0.5000 IDamp=-1.
 Damping current iteration by 5.00D-01
 RMSDP=1.13D-02 MaxDP=8.89D-01              OVMax= 2.04D-01

 Cycle   2  Pass 1  IDiag  1:
 RMSU=  2.98D-03    CP:  8.08D-01
 E= -615.417409254045     Delta-E=       -0.092452151211 Rises=F Damp=T
 DIIS: error= 3.74D-02 at cycle   2 NSaved=   2.
 NSaved= 2 IEnMin= 2 EnMin= -615.417409254045     IErMin= 2 ErrMin= 3.74D-02
 ErrMax= 3.74D-02  0.00D+00 EMaxC= 1.00D-01 BMatC= 3.24D-01 BMatP= 1.53D+00
 IDIUse=3 WtCom= 6.26D-01 WtEn= 3.74D-01
 Coeff-Com: -0.466D+00 0.147D+01
 Coeff-En:   0.153D+00 0.847D+00
 Coeff:     -0.234D+00 0.123D+01
 Gap=     0.269 Goal=   None    Shift=    0.000
 RMSDP=6.23D-03 MaxDP=3.27D-01 DE=-9.25D-02 OVMax= 2.59D-01

 Cycle   3  Pass 1  IDiag  1:
 RMSU=  4.18D-03    CP:  6.41D-01  1.66D+00
 E= -615.401579359079     Delta-E=        0.015829894965 Rises=F Damp=F
 DIIS: error= 3.00D-02 at cycle   3 NSaved=   3.
 NSaved= 3 IEnMin= 2 EnMin= -615.417409254045     IErMin= 3 ErrMin= 3.00D-02
 ErrMax= 3.00D-02  0.00D+00 EMaxC= 1.00D-01 BMatC= 1.77D-01 BMatP= 3.24D-01
 IDIUse=3 WtCom= 7.00D-01 WtEn= 3.00D-01
 Coeff-Com: -0.363D+00 0.814D+00 0.549D+00
 Coeff-En:   0.000D+00 0.543D+00 0.457D+00
 Coeff:     -0.254D+00 0.733D+00 0.521D+00
 Gap=     0.226 Goal=   None    Shift=    0.000
 RMSDP=2.14D-03 MaxDP=1.10D-01 DE= 1.58D-02 OVMax= 1.72D-01

 Cycle   4  Pass 1  IDiag  1:
 RMSU=  6.19D-04    CP:  6.31D-01  1.84D+00  5.30D-01
 E= -615.559296334629     Delta-E=       -0.157716975550 Rises=F Damp=F
 DIIS: error= 8.25D-03 at cycle   4 NSaved=   4.
 NSaved= 4 IEnMin= 4 EnMin= -615.559296334629     IErMin= 4 ErrMin= 8.25D-03
 ErrMax= 8.25D-03  0.00D+00 EMaxC= 1.00D-01 BMatC= 1.14D-02 BMatP= 1.77D-01
 IDIUse=3 WtCom= 9.18D-01 WtEn= 8.25D-02
 Coeff-Com: -0.145D+00 0.332D+00 0.321D+00 0.492D+00
 Coeff-En:   0.000D+00 0.000D+00 0.340D-01 0.966D+00
 Coeff:     -0.133D+00 0.305D+00 0.298D+00 0.531D+00
 Gap=     0.195 Goal=   None    Shift=    0.000
 RMSDP=5.77D-04 MaxDP=3.03D-02 DE=-1.58D-01 OVMax= 4.91D-02

 Cycle   5  Pass 1  IDiag  1:
 RMSU=  2.85D-04    CP:  6.29D-01  1.82D+00  6.32D-01  5.88D-01
 E= -615.570686709824     Delta-E=       -0.011390375195 Rises=F Damp=F
 DIIS: error= 1.98D-03 at cycle   5 NSaved=   5.
 NSaved= 5 IEnMin= 5 EnMin= -615.570686709824     IErMin= 5 ErrMin= 1.98D-03
 ErrMax= 1.98D-03  0.00D+00 EMaxC= 1.00D-01 BMatC= 4.34D-04 BMatP= 1.14D-02
 IDIUse=3 WtCom= 9.80D-01 WtEn= 1.98D-02
 Coeff-Com: -0.628D-02 0.165D-01 0.422D-01 0.229D+00 0.719D+00
 Coeff-En:   0.000D+00 0.000D+00 0.000D+00 0.000D+00 0.100D+01
 Coeff:     -0.615D-02 0.162D-01 0.413D-01 0.224D+00 0.724D+00
 Gap=     0.190 Goal=   None    Shift=    0.000
 RMSDP=1.21D-04 MaxDP=5.23D-03 DE=-1.14D-02 OVMax= 1.15D-02

 Cycle   6  Pass 1  IDiag  1:
 RMSU=  8.68D-05    CP:  6.28D-01  1.84D+00  6.36D-01  6.76D-01  8.92D-01
 E= -615.571074057718     Delta-E=       -0.000387347894 Rises=F Damp=F
 DIIS: error= 7.95D-04 at cycle   6 NSaved=   6.
 NSaved= 6 IEnMin= 6 EnMin= -615.571074057718     IErMin= 6 ErrMin= 7.95D-04
 ErrMax= 7.95D-04  0.00D+00 EMaxC= 1.00D-01 BMatC= 8.69D-05 BMatP= 4.34D-04
 IDIUse=3 WtCom= 9.92D-01 WtEn= 7.95D-03
 Coeff-Com:  0.782D-02-0.169D-01-0.116D-02 0.922D-01 0.443D+00 0.475D+00
 Coeff-En:   0.000D+00 0.000D+00 0.000D+00 0.000D+00 0.126D+00 0.874D+00
 Coeff:      0.775D-02-0.168D-01-0.115D-02 0.915D-01 0.441D+00 0.478D+00
 Gap=     0.191 Goal=   None    Shift=    0.000
 RMSDP=4.10D-05 MaxDP=1.77D-03 DE=-3.87D-04 OVMax= 2.86D-03

 Cycle   7  Pass 1  IDiag  1:
 RMSU=  2.37D-05    CP:  6.29D-01  1.83D+00  6.33D-01  6.71D-01  9.17D-01
                    CP:  7.48D-01
 E= -615.571159172305     Delta-E=       -0.000085114586 Rises=F Damp=F
 DIIS: error= 4.27D-05 at cycle   7 NSaved=   7.
 NSaved= 7 IEnMin= 7 EnMin= -615.571159172305     IErMin= 7 ErrMin= 4.27D-05
 ErrMax= 4.27D-05  0.00D+00 EMaxC= 1.00D-01 BMatC= 8.12D-07 BMatP= 8.69D-05
 IDIUse=1 WtCom= 1.00D+00 WtEn= 0.00D+00
 Coeff-Com:  0.258D-02-0.557D-02-0.172D-02 0.215D-01 0.112D+00 0.157D+00
 Coeff-Com:  0.714D+00
 Coeff:      0.258D-02-0.557D-02-0.172D-02 0.215D-01 0.112D+00 0.157D+00
 Coeff:      0.714D+00
 Gap=     0.191 Goal=   None    Shift=    0.000
 RMSDP=8.30D-06 MaxDP=3.61D-04 DE=-8.51D-05 OVMax= 3.40D-04

 Cycle   8  Pass 1  IDiag  1:
 RMSU=  4.98D-06    CP:  6.29D-01  1.83D+00  6.33D-01  6.73D-01  9.17D-01
                    CP:  7.21D-01  7.67D-01
 E= -615.571159863345     Delta-E=       -0.000000691040 Rises=F Damp=F
 DIIS: error= 1.80D-05 at cycle   8 NSaved=   8.
 NSaved= 8 IEnMin= 8 EnMin= -615.571159863345     IErMin= 8 ErrMin= 1.80D-05
 ErrMax= 1.80D-05  0.00D+00 EMaxC= 1.00D-01 BMatC= 1.17D-07 BMatP= 8.12D-07
 IDIUse=1 WtCom= 1.00D+00 WtEn= 0.00D+00
 Coeff-Com:  0.689D-03-0.146D-02-0.671D-03 0.416D-02 0.228D-01 0.413D-01
 Coeff-Com:  0.331D+00 0.602D+00
 Coeff:      0.689D-03-0.146D-02-0.671D-03 0.416D-02 0.228D-01 0.413D-01
 Coeff:      0.331D+00 0.602D+00
 Gap=     0.191 Goal=   None    Shift=    0.000
 RMSDP=2.44D-06 MaxDP=1.07D-04 DE=-6.91D-07 OVMax= 1.38D-04

 Cycle   9  Pass 1  IDiag  1:
 RMSU=  1.56D-06    CP:  6.29D-01  1.83D+00  6.33D-01  6.73D-01  9.16D-01
                    CP:  7.23D-01  8.13D-01  7.77D-01
 E= -615.571159948321     Delta-E=       -0.000000084976 Rises=F Damp=F
 DIIS: error= 1.34D-05 at cycle   9 NSaved=   9.
 NSaved= 9 IEnMin= 9 EnMin= -615.571159948321     IErMin= 9 ErrMin= 1.34D-05
 ErrMax= 1.34D-05  0.00D+00 EMaxC= 1.00D-01 BMatC= 3.13D-08 BMatP= 1.17D-07
 IDIUse=1 WtCom= 1.00D+00 WtEn= 0.00D+00
 Coeff-Com:  0.148D-03-0.299D-03-0.200D-03 0.255D-03 0.195D-02 0.889D-02
 Coeff-Com:  0.129D+00 0.380D+00 0.481D+00
 Coeff:      0.148D-03-0.299D-03-0.200D-03 0.255D-03 0.195D-02 0.889D-02
 Coeff:      0.129D+00 0.380D+00 0.481D+00
 Gap=     0.191 Goal=   None    Shift=    0.000
 RMSDP=9.56D-07 MaxDP=4.32D-05 DE=-8.50D-08 OVMax= 6.24D-05

 Cycle  10  Pass 1  IDiag  1:
 RMSU=  6.17D-07    CP:  6.29D-01  1.83D+00  6.33D-01  6.73D-01  9.16D-01
                    CP:  7.27D-01  8.17D-01  7.97D-01  6.60D-01
 E= -615.571159975489     Delta-E=       -0.000000027168 Rises=F Damp=F
 DIIS: error= 3.20D-06 at cycle  10 NSaved=  10.
 NSaved=10 IEnMin=10 EnMin= -615.571159975489     IErMin=10 ErrMin= 3.20D-06
 ErrMax= 3.20D-06  0.00D+00 EMaxC= 1.00D-01 BMatC= 2.64D-09 BMatP= 3.13D-08
 IDIUse=1 WtCom= 1.00D+00 WtEn= 0.00D+00
 Coeff-Com:  0.969D-05-0.137D-04-0.285D-04-0.350D-03-0.150D-02 0.651D-03
 Coeff-Com:  0.356D-01 0.148D+00 0.275D+00 0.543D+00
 Coeff:      0.969D-05-0.137D-04-0.285D-04-0.350D-03-0.150D-02 0.651D-03
 Coeff:      0.356D-01 0.148D+00 0.275D+00 0.543D+00
 Gap=     0.191 Goal=   None    Shift=    0.000
 RMSDP=2.78D-07 MaxDP=1.84D-05 DE=-2.72D-08 OVMax= 1.60D-05

 Cycle  11  Pass 1  IDiag  1:
 RMSU=  1.72D-07    CP:  6.29D-01  1.83D+00  6.33D-01  6.73D-01  9.16D-01
                    CP:  7.28D-01  8.18D-01  7.97D-01  6.98D-01  7.41D-01
 E= -615.571159977953     Delta-E=       -0.000000002464 Rises=F Damp=F
 DIIS: error= 7.77D-07 at cycle  11 NSaved=  11.
 NSaved=11 IEnMin=11 EnMin= -615.571159977953     IErMin=11 ErrMin= 7.77D-07
 ErrMax= 7.77D-07  0.00D+00 EMaxC= 1.00D-01 BMatC= 1.69D-10 BMatP= 2.64D-09
 IDIUse=1 WtCom= 1.00D+00 WtEn= 0.00D+00
 Coeff-Com: -0.131D-04 0.278D-04 0.154D-04-0.207D-03-0.929D-03-0.724D-03
 Coeff-Com: -0.159D-02 0.122D-01 0.530D-01 0.230D+00 0.708D+00
 Coeff:     -0.131D-04 0.278D-04 0.154D-04-0.207D-03-0.929D-03-0.724D-03
 Coeff:     -0.159D-02 0.122D-01 0.530D-01 0.230D+00 0.708D+00
 Gap=     0.191 Goal=   None    Shift=    0.000
 RMSDP=1.69D-07 MaxDP=1.14D-05 DE=-2.46D-09 OVMax= 4.42D-06

 Cycle  12  Pass 1  IDiag  1:
 RMSU=  1.05D-07    CP:  6.29D-01  1.83D+00  6.33D-01  6.73D-01  9.16D-01
                    CP:  7.27D-01  8.19D-01  7.96D-01  6.95D-01  7.40D-01
                    CP:  9.83D-01
 E= -615.571159978059     Delta-E=       -0.000000000106 Rises=F Damp=F
 DIIS: error= 2.59D-07 at cycle  12 NSaved=  12.
 NSaved=12 IEnMin=12 EnMin= -615.571159978059     IErMin=12 ErrMin= 2.59D-07
 ErrMax= 2.59D-07  0.00D+00 EMaxC= 1.00D-01 BMatC= 1.76D-11 BMatP= 1.69D-10
 IDIUse=1 WtCom= 1.00D+00 WtEn= 0.00D+00
 Coeff-Com: -0.465D-05 0.942D-05 0.698D-05-0.707D-04-0.289D-03-0.288D-03
 Coeff-Com: -0.271D-02-0.400D-02 0.668D-02 0.742D-01 0.350D+00 0.576D+00
 Coeff:     -0.465D-05 0.942D-05 0.698D-05-0.707D-04-0.289D-03-0.288D-03
 Coeff:     -0.271D-02-0.400D-02 0.668D-02 0.742D-01 0.350D+00 0.576D+00
 Gap=     0.191 Goal=   None    Shift=    0.000
 RMSDP=5.83D-08 MaxDP=3.01D-06 DE=-1.06D-10 OVMax= 2.31D-06

 Cycle  13  Pass 1  IDiag  1:
 RMSU=  1.98D-08    CP:  6.29D-01  1.83D+00  6.33D-01  6.73D-01  9.16D-01
                    CP:  7.27D-01  8.19D-01  7.98D-01  7.01D-01  7.57D-01
                    CP:  9.39D-01  7.30D-01
 E= -615.571159978129     Delta-E=       -0.000000000070 Rises=F Damp=F
 DIIS: error= 9.65D-08 at cycle  13 NSaved=  13.
 NSaved=13 IEnMin=13 EnMin= -615.571159978129     IErMin=13 ErrMin= 9.65D-08
 ErrMax= 9.65D-08  0.00D+00 EMaxC= 1.00D-01 BMatC= 1.75D-12 BMatP= 1.76D-11
 IDIUse=1 WtCom= 1.00D+00 WtEn= 0.00D+00
 Coeff-Com: -0.147D-05 0.292D-05 0.225D-05-0.151D-04-0.579D-04-0.910D-04
 Coeff-Com: -0.132D-02-0.369D-02-0.303D-02 0.985D-02 0.892D-01 0.289D+00
 Coeff-Com:  0.620D+00
 Coeff:     -0.147D-05 0.292D-05 0.225D-05-0.151D-04-0.579D-04-0.910D-04
 Coeff:     -0.132D-02-0.369D-02-0.303D-02 0.985D-02 0.892D-01 0.289D+00
 Coeff:      0.620D+00
 Gap=     0.191 Goal=   None    Shift=    0.000
 RMSDP=2.00D-08 MaxDP=1.19D-06 DE=-7.03D-11 OVMax= 4.92D-07

 Cycle  14  Pass 1  IDiag  1:
 RMSU=  6.12D-09    CP:  6.29D-01  1.83D+00  6.33D-01  6.73D-01  9.16D-01
                    CP:  7.27D-01  8.19D-01  7.98D-01  7.01D-01  7.56D-01
                    CP:  9.65D-01  8.17D-01  9.32D-01
 E= -615.571159978108     Delta-E=        0.000000000021 Rises=F Damp=F
 DIIS: error= 1.82D-08 at cycle  14 NSaved=  14.
 NSaved=14 IEnMin=13 EnMin= -615.571159978129     IErMin=14 ErrMin= 1.82D-08
 ErrMax= 1.82D-08  0.00D+00 EMaxC= 1.00D-01 BMatC= 1.08D-13 BMatP= 1.75D-12
 IDIUse=1 WtCom= 1.00D+00 WtEn= 0.00D+00
 Coeff-Com: -0.615D-06 0.123D-05 0.770D-06-0.405D-05-0.173D-04-0.327D-04
 Coeff-Com: -0.423D-03-0.132D-02-0.146D-02 0.813D-03 0.207D-01 0.104D+00
 Coeff-Com:  0.283D+00 0.595D+00
 Coeff:     -0.615D-06 0.123D-05 0.770D-06-0.405D-05-0.173D-04-0.327D-04
 Coeff:     -0.423D-03-0.132D-02-0.146D-02 0.813D-03 0.207D-01 0.104D+00
 Coeff:      0.283D+00 0.595D+00
 Gap=     0.191 Goal=   None    Shift=    0.000
 RMSDP=3.48D-09 MaxDP=3.24D-07 DE= 2.09D-11 OVMax= 6.61D-08

 Error on total polarization charges =  0.01855
 SCF Done:  E(RN12SX) =  -615.571159978     A.U. after   14 cycles
            NFock= 14  Conv=0.35D-08     -V/T= 2.0061
 KE= 6.118249093031D+02 PE=-3.458488152693D+03 EE= 1.215928490044D+03
 Leave Link  502 at Sat Jun 19 14:13:54 2021, MaxMem=  3355443200 cpu:      3719.0
 (Enter /usr/local/gqt/g09/l601.exe)
 Copying SCF densities to generalized density rwf, IOpCl= 0 IROHF=0.

 **********************************************************************

            Population analysis using the SCF density.

 **********************************************************************

 Orbital symmetries:
       Occupied  (A) (A) (A) (A) (A) (A) (A) (A) (A) (A) (A) (A)
                 (A) (A) (A) (A) (A) (A) (A) (A) (A) (A) (A) (A)
                 (A) (A) (A) (A) (A) (A) (A) (A) (A) (A) (A) (A)
                 (A) (A) (A) (A) (A) (A) (A) (A) (A) (A) (A) (A)
                 (A) (A) (A) (A) (A) (A) (A)
       Virtual   (A) (A) (A) (A) (A) (A) (A) (A) (A) (A) (A) (A)
                 (A) (A) (A) (A) (A) (A) (A) (A) (A) (A) (A) (A)
                 (A) (A) (A) (A) (A) (A) (A) (A) (A) (A) (A) (A)
                 (A) (A) (A) (A) (A) (A) (A) (A) (A) (A) (A) (A)
                 (A) (A) (A) (A) (A) (A) (A) (A) (A) (A) (A) (A)
                 (A) (A) (A) (A) (A) (A) (A) (A) (A) (A) (A) (A)
                 (A) (A) (A) (A) (A) (A) (A) (A) (A) (A) (A) (A)
                 (A) (A) (A) (A) (A) (A) (A) (A) (A) (A) (A) (A)
                 (A) (A) (A) (A) (A) (A) (A) (A) (A) (A) (A) (A)
                 (A) (A) (A) (A) (A) (A) (A) (A) (A) (A) (A) (A)
                 (A) (A) (A) (A) (A) (A) (A) (A) (A) (A) (A) (A)
                 (A) (A) (A) (A) (A) (A) (A) (A) (A) (A) (A) (A)
                 (A) (A) (A) (A) (A) (A) (A) (A) (A) (A) (A) (A)
                 (A) (A) (A) (A) (A) (A) (A) (A) (A) (A) (A) (A)
                 (A) (A) (A) (A) (A) (A) (A) (A) (A) (A) (A) (A)
                 (A) (A) (A) (A) (A) (A) (A) (A) (A) (A) (A) (A)
                 (A) (A) (A) (A) (A) (A) (A) (A) (A) (A) (A) (A)
                 (A) (A) (A) (A) (A) (A) (A) (A) (A) (A) (A) (A)
                 (A) (A) (A) (A) (A) (A) (A) (A) (A) (A) (A) (A)
                 (A) (A) (A) (A) (A) (A) (A) (A) (A) (A) (A) (A)
                 (A) (A) (A) (A) (A) (A) (A) (A) (A) (A) (A) (A)
                 (A) (A) (A) (A) (A) (A) (A) (A) (A) (A) (A) (A)
                 (A) (A) (A) (A) (A) (A) (A) (A) (A) (A) (A) (A)
                 (A) (A) (A) (A) (A) (A) (A) (A) (A) (A) (A) (A)
                 (A) (A) (A) (A) (A) (A) (A) (A) (A) (A) (A) (A)
                 (A) (A) (A) (A) (A) (A) (A) (A) (A) (A) (A) (A)
                 (A) (A) (A) (A) (A) (A) (A) (A) (A) (A) (A) (A)
                 (A) (A) (A) (A) (A) (A) (A) (A) (A) (A) (A) (A)
                 (A) (A) (A) (A) (A) (A) (A) (A) (A) (A) (A) (A)
                 (A) (A) (A) (A) (A) (A) (A) (A) (A) (A) (A) (A)
                 (A) (A) (A) (A) (A) (A) (A) (A) (A) (A) (A) (A)
                 (A) (A) (A) (A) (A) (A) (A) (A) (A)
 The electronic state is 1-A.
 Alpha  occ. eigenvalues --  -14.41109 -14.41093 -10.26657 -10.26586 -10.26581
 Alpha  occ. eigenvalues --  -10.26408 -10.24936 -10.23494 -10.23438 -10.22857
 Alpha  occ. eigenvalues --  -10.22798 -10.20947 -10.20941 -10.20936 -10.20921
 Alpha  occ. eigenvalues --   -1.03551  -0.92927  -0.86448  -0.81615  -0.77724
 Alpha  occ. eigenvalues --   -0.75339  -0.74820  -0.69523  -0.69489  -0.65443
 Alpha  occ. eigenvalues --   -0.63308  -0.62649  -0.58280  -0.56906  -0.51582
 Alpha  occ. eigenvalues --   -0.51103  -0.48462  -0.47111  -0.46506  -0.45279
 Alpha  occ. eigenvalues --   -0.44967  -0.43566  -0.43087  -0.42959  -0.40506
 Alpha  occ. eigenvalues --   -0.39214  -0.39178  -0.38306  -0.37701  -0.36670
 Alpha  occ. eigenvalues --   -0.36163  -0.35636  -0.35547  -0.33499  -0.33374
 Alpha  occ. eigenvalues --   -0.32781  -0.29906  -0.23497  -0.23322  -0.22970
 Alpha virt. eigenvalues --   -0.03883  -0.00768  -0.00689   0.00235   0.00654
 Alpha virt. eigenvalues --    0.01564   0.01746   0.02116   0.02317   0.02451
 Alpha virt. eigenvalues --    0.02520   0.04268   0.04708   0.04786   0.05051
 Alpha virt. eigenvalues --    0.05656   0.06472   0.06525   0.06911   0.07131
 Alpha virt. eigenvalues --    0.07812   0.08162   0.08476   0.09247   0.10136
 Alpha virt. eigenvalues --    0.10224   0.10486   0.10611   0.10845   0.11883
 Alpha virt. eigenvalues --    0.12022   0.12340   0.13715   0.14015   0.14064
 Alpha virt. eigenvalues --    0.14625   0.14733   0.15287   0.15749   0.16012
 Alpha virt. eigenvalues --    0.16251   0.16584   0.17231   0.17330   0.18451
 Alpha virt. eigenvalues --    0.18523   0.18677   0.19095   0.19364   0.19741
 Alpha virt. eigenvalues --    0.20287   0.20613   0.20979   0.21093   0.21688
 Alpha virt. eigenvalues --    0.21915   0.22137   0.22847   0.23217   0.23313
 Alpha virt. eigenvalues --    0.23402   0.23660   0.23773   0.24211   0.24835
 Alpha virt. eigenvalues --    0.25420   0.25736   0.25917   0.26471   0.26640
 Alpha virt. eigenvalues --    0.26765   0.27243   0.27550   0.28701   0.29268
 Alpha virt. eigenvalues --    0.29379   0.30076   0.30497   0.31051   0.31976
 Alpha virt. eigenvalues --    0.32526   0.32890   0.33660   0.34320   0.36628
 Alpha virt. eigenvalues --    0.36806   0.37226   0.37590   0.39504   0.40735
 Alpha virt. eigenvalues --    0.40862   0.41283   0.42436   0.42511   0.43578
 Alpha virt. eigenvalues --    0.44631   0.45680   0.47863   0.49132   0.49254
 Alpha virt. eigenvalues --    0.49572   0.51033   0.51525   0.52569   0.54672
 Alpha virt. eigenvalues --    0.55300   0.55353   0.55504   0.55912   0.56810
 Alpha virt. eigenvalues --    0.57852   0.59457   0.60770   0.61257   0.61773
 Alpha virt. eigenvalues --    0.62269   0.63156   0.63346   0.64422   0.64793
 Alpha virt. eigenvalues --    0.65352   0.66004   0.66922   0.68166   0.68408
 Alpha virt. eigenvalues --    0.68490   0.68768   0.69115   0.70282   0.70663
 Alpha virt. eigenvalues --    0.71080   0.71762   0.72504   0.72652   0.73206
 Alpha virt. eigenvalues --    0.74370   0.74719   0.74931   0.75529   0.76119
 Alpha virt. eigenvalues --    0.76541   0.77632   0.78592   0.79342   0.79577
 Alpha virt. eigenvalues --    0.81658   0.82345   0.83853   0.84938   0.85588
 Alpha virt. eigenvalues --    0.86795   0.89187   0.90944   0.91133   0.91778
 Alpha virt. eigenvalues --    0.92036   0.95586   0.97600   0.99005   1.00078
 Alpha virt. eigenvalues --    1.00471   1.01756   1.02149   1.03001   1.03321
 Alpha virt. eigenvalues --    1.04767   1.05268   1.05808   1.06906   1.09020
 Alpha virt. eigenvalues --    1.10439   1.12559   1.13908   1.14530   1.16556
 Alpha virt. eigenvalues --    1.19033   1.20072   1.20837   1.21578   1.24990
 Alpha virt. eigenvalues --    1.29522   1.29787   1.33329   1.34278   1.37072
 Alpha virt. eigenvalues --    1.39157   1.39633   1.43305   1.44794   1.45293
 Alpha virt. eigenvalues --    1.46325   1.46594   1.46690   1.47493   1.50617
 Alpha virt. eigenvalues --    1.52462   1.52757   1.52839   1.53762   1.53862
 Alpha virt. eigenvalues --    1.55051   1.55471   1.56470   1.56583   1.57797
 Alpha virt. eigenvalues --    1.58653   1.59485   1.61822   1.62186   1.62982
 Alpha virt. eigenvalues --    1.63324   1.64120   1.64815   1.65499   1.66792
 Alpha virt. eigenvalues --    1.66864   1.67723   1.69307   1.70075   1.70903
 Alpha virt. eigenvalues --    1.71911   1.73483   1.73991   1.74177   1.75093
 Alpha virt. eigenvalues --    1.76165   1.77763   1.77941   1.80968   1.81406
 Alpha virt. eigenvalues --    1.82434   1.84222   1.86107   1.87557   1.90207
 Alpha virt. eigenvalues --    1.90635   1.91680   1.92686   1.92855   1.93363
 Alpha virt. eigenvalues --    1.94041   1.94985   1.96744   1.98718   1.99052
 Alpha virt. eigenvalues --    2.00848   2.01604   2.02739   2.05300   2.06069
 Alpha virt. eigenvalues --    2.08219   2.09611   2.11821   2.12320   2.12929
 Alpha virt. eigenvalues --    2.13020   2.18944   2.19683   2.22172   2.23851
 Alpha virt. eigenvalues --    2.24868   2.27021   2.27662   2.29785   2.30761
 Alpha virt. eigenvalues --    2.32395   2.34739   2.35548   2.36207   2.37646
 Alpha virt. eigenvalues --    2.41601   2.42485   2.46569   2.48109   2.48566
 Alpha virt. eigenvalues --    2.49898   2.50310   2.50969   2.51224   2.52010
 Alpha virt. eigenvalues --    2.52260   2.54474   2.54766   2.56661   2.57083
 Alpha virt. eigenvalues --    2.58354   2.59722   2.60766   2.61780   2.62866
 Alpha virt. eigenvalues --    2.63741   2.64922   2.65026   2.67715   2.69718
 Alpha virt. eigenvalues --    2.70579   2.70776   2.71255   2.71603   2.72511
 Alpha virt. eigenvalues --    2.74050   2.74621   2.74874   2.75764   2.77197
 Alpha virt. eigenvalues --    2.78441   2.80407   2.82435   2.83907   2.83943
 Alpha virt. eigenvalues --    2.84179   2.84572   2.85906   2.88555   2.88705
 Alpha virt. eigenvalues --    2.91060   2.92324   2.94837   2.98648   2.99279
 Alpha virt. eigenvalues --    2.99563   3.00099   3.01721   3.03658   3.09337
 Alpha virt. eigenvalues --    3.10421   3.12038   3.13912   3.19024   3.22509
 Alpha virt. eigenvalues --    3.34258   3.37678   3.38341   3.44422   3.46524
 Alpha virt. eigenvalues --    3.49139   3.55036   3.56424   3.59096   3.65736
 Alpha virt. eigenvalues --    3.78204   3.78370   3.79329   3.79965   3.80372
 Alpha virt. eigenvalues --    3.81541   3.85710   3.86193   3.87245   3.88429
 Alpha virt. eigenvalues --    3.89764   3.94245   3.96020   3.98116   4.04502
 Alpha virt. eigenvalues --    4.11593   4.14344   4.16772   4.25933   4.32316
 Alpha virt. eigenvalues --    4.32943   4.75241   4.87103   4.97166   4.99117
 Alpha virt. eigenvalues --    5.28502  23.53514  23.71757  23.74829  23.77424
 Alpha virt. eigenvalues --   23.86939  23.87471  23.87643  23.87852  23.91156
 Alpha virt. eigenvalues --   23.96047  23.98826  24.01462  24.10814  35.32578
 Alpha virt. eigenvalues --   35.47660
          Condensed to atoms (all electrons):
               1          2          3          4          5          6
     1  C    7.707964   1.183557  -0.000413  -0.079689  -0.075931  -1.597459
     2  C    1.183557   7.601904   0.007881  -0.066089  -0.118011  -0.982399
     3  N   -0.000413   0.007881   7.790420   0.407977  -0.644911  -0.095371
     4  C   -0.079689  -0.066089   0.407977   7.049947   0.360418  -0.397711
     5  N   -0.075931  -0.118011  -0.644911   0.360418   7.680199  -0.141282
     6  C   -1.597459  -0.982399  -0.095371  -0.397711  -0.141282   7.730668
     7  C   -0.315406   0.423284   0.104504   0.029067  -0.145243  -0.033386
     8  C    0.337632  -0.309782  -0.126519   0.038526   0.095340  -0.334525
     9  C   -1.060920  -1.680502  -0.316553  -0.403528   0.064664   1.643080
    10  C   -0.113251  -0.157481  -0.223685  -0.563172  -0.056792   0.083511
    11  C    0.005975   0.022692  -0.060761   0.021143  -0.016125  -0.024517
    12  C    0.003662   0.020451  -0.066185   0.014918  -0.011119  -0.022368
    13  C   -0.269650  -0.101005  -0.113670  -0.561762  -0.203593   0.148754
    14  C    0.045181   0.001754   0.010798   0.031829  -0.046570  -0.051411
    15  C    0.014323   0.001952  -0.013456   0.023628  -0.051912  -0.040513
    16  H   -0.101657   0.017723   0.000365   0.002797  -0.013939   0.477108
    17  H    0.019104  -0.002299  -0.000367   0.000757  -0.000260  -0.065849
    18  H    0.000646   0.016658  -0.000273   0.000732  -0.000258  -0.000327
    19  H    0.018128  -0.112510  -0.015486   0.002024   0.000967   0.009083
    20  H   -0.004701   0.036596  -0.107216   0.015467   0.015785   0.000983
    21  H   -0.001216  -0.001971  -0.011036   0.015809  -0.006669  -0.002067
    22  H   -0.001506   0.010323   0.022759   0.005879  -0.000523  -0.000600
    23  H    0.005301  -0.054928  -0.015570  -0.012004   0.005773   0.004847
    24  H   -0.001516  -0.002842  -0.010578   0.015942  -0.006552  -0.002299
    25  H   -0.001374   0.011375   0.023401   0.006088  -0.000417  -0.000602
    26  H    0.005058  -0.052204  -0.016162  -0.011585   0.005402   0.004783
    27  H    0.042200  -0.002881   0.006255   0.005780  -0.107201  -0.010949
    28  H   -0.011955  -0.003312  -0.007453   0.015534  -0.007506  -0.009582
    29  H    0.009395  -0.001163  -0.000813   0.003621   0.018719   0.001275
    30  H   -0.035475   0.006352   0.005632  -0.008765  -0.018818   0.035165
    31  H   -0.011824  -0.003486  -0.006472   0.012092  -0.010407  -0.008958
    32  H    0.010550  -0.001272  -0.000064   0.005012   0.024044   0.001315
    33  H   -0.032129   0.007980   0.004811  -0.009372  -0.020523   0.036163
               7          8          9         10         11         12
     1  C   -0.315406   0.337632  -1.060920  -0.113251   0.005975   0.003662
     2  C    0.423284  -0.309782  -1.680502  -0.157481   0.022692   0.020451
     3  N    0.104504  -0.126519  -0.316553  -0.223685  -0.060761  -0.066185
     4  C    0.029067   0.038526  -0.403528  -0.563172   0.021143   0.014918
     5  N   -0.145243   0.095340   0.064664  -0.056792  -0.016125  -0.011119
     6  C   -0.033386  -0.334525   1.643080   0.083511  -0.024517  -0.022368
     7  C    6.479818   0.246548  -0.440692   0.011343   0.007413   0.003424
     8  C    0.246548   6.163212   0.137049  -0.139303   0.001679   0.004400
     9  C   -0.440692   0.137049   7.965447   0.063177  -0.051767  -0.042088
    10  C    0.011343  -0.139303   0.063177   7.463858  -0.212780  -0.207682
    11  C    0.007413   0.001679  -0.051767  -0.212780   5.980237  -0.334539
    12  C    0.003424   0.004400  -0.042088  -0.207682  -0.334539   5.980250
    13  C   -0.108032   0.000879   0.095217   0.100665  -0.016299  -0.020334
    14  C   -0.006276   0.003614  -0.023564  -0.014242   0.007218  -0.003082
    15  C   -0.025544   0.008408  -0.016878  -0.019631  -0.003859   0.008224
    16  H   -0.033963  -0.008050   0.005879   0.000603  -0.000013  -0.000028
    17  H    0.413593  -0.005146  -0.002339  -0.000612   0.000100   0.000101
    18  H   -0.005674   0.418611  -0.072593   0.001407  -0.000083  -0.000119
    19  H   -0.009955  -0.024298   0.481796   0.032644  -0.014403  -0.015453
    20  H   -0.000629   0.000570  -0.004471   0.536825  -0.067896  -0.067536
    21  H    0.000690  -0.003640  -0.017138   0.007968   0.394059   0.007933
    22  H    0.000055   0.002133  -0.000617  -0.118211   0.451017   0.007047
    23  H   -0.002244   0.008834   0.052211   0.031899   0.369380  -0.017849
    24  H    0.000700  -0.002928  -0.016527   0.007620   0.008425   0.393707
    25  H    0.000043   0.001975  -0.001281  -0.121779   0.008662   0.451643
    26  H   -0.002169   0.007437   0.050211   0.036238  -0.019670   0.368337
    27  H   -0.000385  -0.000224   0.000275  -0.001133  -0.000114  -0.000069
    28  H   -0.001551   0.000755  -0.002152  -0.000299  -0.000005   0.000138
    29  H    0.002105   0.000144  -0.000469  -0.000085   0.000003   0.000084
    30  H    0.005758  -0.002984   0.003557   0.000615  -0.000020  -0.000396
    31  H   -0.000973   0.000680  -0.001978   0.000106   0.000073  -0.000005
    32  H    0.002724   0.000097  -0.000521   0.000068   0.000058  -0.000003
    33  H   -0.000054  -0.003256   0.003997   0.000362  -0.000339  -0.000033
              13         14         15         16         17         18
     1  C   -0.269650   0.045181   0.014323  -0.101657   0.019104   0.000646
     2  C   -0.101005   0.001754   0.001952   0.017723  -0.002299   0.016658
     3  N   -0.113670   0.010798  -0.013456   0.000365  -0.000367  -0.000273
     4  C   -0.561762   0.031829   0.023628   0.002797   0.000757   0.000732
     5  N   -0.203593  -0.046570  -0.051912  -0.013939  -0.000260  -0.000258
     6  C    0.148754  -0.051411  -0.040513   0.477108  -0.065849  -0.000327
     7  C   -0.108032  -0.006276  -0.025544  -0.033963   0.413593  -0.005674
     8  C    0.000879   0.003614   0.008408  -0.008050  -0.005146   0.418611
     9  C    0.095217  -0.023564  -0.016878   0.005879  -0.002339  -0.072593
    10  C    0.100665  -0.014242  -0.019631   0.000603  -0.000612   0.001407
    11  C   -0.016299   0.007218  -0.003859  -0.000013   0.000100  -0.000083
    12  C   -0.020334  -0.003082   0.008224  -0.000028   0.000101  -0.000119
    13  C    7.586520  -0.271781  -0.280778   0.037760   0.001594  -0.000516
    14  C   -0.271781   5.929352  -0.277786  -0.017182  -0.000171   0.000089
    15  C   -0.280778  -0.277786   5.974402  -0.019023   0.000007   0.000105
    16  H    0.037760  -0.017182  -0.019023   0.496789  -0.006276  -0.000168
    17  H    0.001594  -0.000171   0.000007  -0.006276   0.495688  -0.007008
    18  H   -0.000516   0.000089   0.000105  -0.000168  -0.007008   0.495916
    19  H    0.000844  -0.000036  -0.000009   0.000037  -0.000164  -0.006324
    20  H    0.000355  -0.000046  -0.000111  -0.000001   0.000000   0.000000
    21  H   -0.000156  -0.000002   0.000108  -0.000001   0.000000   0.000002
    22  H   -0.000060   0.000001   0.000075   0.000000   0.000000   0.000000
    23  H    0.000554  -0.000033  -0.000290   0.000000   0.000001   0.000011
    24  H   -0.000200   0.000102  -0.000015   0.000000   0.000000   0.000002
    25  H   -0.000016   0.000076  -0.000003   0.000000   0.000000   0.000000
    26  H    0.000526  -0.000296  -0.000021   0.000000   0.000001   0.000013
    27  H    0.557960  -0.072950  -0.065985  -0.000075   0.000000   0.000000
    28  H   -0.000224   0.400508   0.009490  -0.000036   0.000003   0.000000
    29  H   -0.109750   0.448772   0.005007   0.000067   0.000000   0.000000
    30  H    0.047698   0.358198  -0.023588   0.000822   0.000018   0.000002
    31  H    0.008003   0.009486   0.398417  -0.000012   0.000002   0.000000
    32  H   -0.123748   0.009675   0.451827   0.000089   0.000000   0.000000
    33  H    0.047884  -0.027392   0.363151   0.001710   0.000016   0.000002
              19         20         21         22         23         24
     1  C    0.018128  -0.004701  -0.001216  -0.001506   0.005301  -0.001516
     2  C   -0.112510   0.036596  -0.001971   0.010323  -0.054928  -0.002842
     3  N   -0.015486  -0.107216  -0.011036   0.022759  -0.015570  -0.010578
     4  C    0.002024   0.015467   0.015809   0.005879  -0.012004   0.015942
     5  N    0.000967   0.015785  -0.006669  -0.000523   0.005773  -0.006552
     6  C    0.009083   0.000983  -0.002067  -0.000600   0.004847  -0.002299
     7  C   -0.009955  -0.000629   0.000690   0.000055  -0.002244   0.000700
     8  C   -0.024298   0.000570  -0.003640   0.002133   0.008834  -0.002928
     9  C    0.481796  -0.004471  -0.017138  -0.000617   0.052211  -0.016527
    10  C    0.032644   0.536825   0.007968  -0.118211   0.031899   0.007620
    11  C   -0.014403  -0.067896   0.394059   0.451017   0.369380   0.008425
    12  C   -0.015453  -0.067536   0.007933   0.007047  -0.017849   0.393707
    13  C    0.000844   0.000355  -0.000156  -0.000060   0.000554  -0.000200
    14  C   -0.000036  -0.000046  -0.000002   0.000001  -0.000033   0.000102
    15  C   -0.000009  -0.000111   0.000108   0.000075  -0.000290  -0.000015
    16  H    0.000037  -0.000001  -0.000001   0.000000   0.000000   0.000000
    17  H   -0.000164   0.000000   0.000000   0.000000   0.000001   0.000000
    18  H   -0.006324   0.000000   0.000002   0.000000   0.000011   0.000002
    19  H    0.491692  -0.000099  -0.000050   0.000063   0.000464  -0.000044
    20  H   -0.000099   0.480028  -0.004392  -0.005171   0.004858  -0.004453
    21  H   -0.000050  -0.004392   0.502089  -0.020330  -0.028403  -0.000315
    22  H    0.000063  -0.005171  -0.020330   0.499540  -0.025624   0.000185
    23  H    0.000464   0.004858  -0.028403  -0.025624   0.503210  -0.000160
    24  H   -0.000044  -0.004453  -0.000315   0.000185  -0.000160   0.502201
    25  H    0.000080  -0.005078   0.000191   0.002642  -0.000464  -0.020323
    26  H    0.000372   0.004866  -0.000155  -0.000472   0.000839  -0.028493
    27  H   -0.000001   0.000076   0.000002   0.000000   0.000001   0.000003
    28  H    0.000000   0.000004   0.000000   0.000000   0.000000   0.000008
    29  H    0.000000   0.000000   0.000000   0.000000   0.000000   0.000000
    30  H    0.000000   0.000002   0.000000   0.000000   0.000000   0.000000
    31  H    0.000000   0.000003   0.000004   0.000000   0.000000   0.000000
    32  H    0.000000   0.000000   0.000000   0.000000   0.000000   0.000000
    33  H    0.000000   0.000002   0.000000   0.000000   0.000001   0.000000
              25         26         27         28         29         30
     1  C   -0.001374   0.005058   0.042200  -0.011955   0.009395  -0.035475
     2  C    0.011375  -0.052204  -0.002881  -0.003312  -0.001163   0.006352
     3  N    0.023401  -0.016162   0.006255  -0.007453  -0.000813   0.005632
     4  C    0.006088  -0.011585   0.005780   0.015534   0.003621  -0.008765
     5  N   -0.000417   0.005402  -0.107201  -0.007506   0.018719  -0.018818
     6  C   -0.000602   0.004783  -0.010949  -0.009582   0.001275   0.035165
     7  C    0.000043  -0.002169  -0.000385  -0.001551   0.002105   0.005758
     8  C    0.001975   0.007437  -0.000224   0.000755   0.000144  -0.002984
     9  C   -0.001281   0.050211   0.000275  -0.002152  -0.000469   0.003557
    10  C   -0.121779   0.036238  -0.001133  -0.000299  -0.000085   0.000615
    11  C    0.008662  -0.019670  -0.000114  -0.000005   0.000003  -0.000020
    12  C    0.451643   0.368337  -0.000069   0.000138   0.000084  -0.000396
    13  C   -0.000016   0.000526   0.557960  -0.000224  -0.109750   0.047698
    14  C    0.000076  -0.000296  -0.072950   0.400508   0.448772   0.358198
    15  C   -0.000003  -0.000021  -0.065985   0.009490   0.005007  -0.023588
    16  H    0.000000   0.000000  -0.000075  -0.000036   0.000067   0.000822
    17  H    0.000000   0.000001   0.000000   0.000003   0.000000   0.000018
    18  H    0.000000   0.000013   0.000000   0.000000   0.000000   0.000002
    19  H    0.000080   0.000372  -0.000001   0.000000   0.000000   0.000000
    20  H   -0.005078   0.004866   0.000076   0.000004   0.000000   0.000002
    21  H    0.000191  -0.000155   0.000002   0.000000   0.000000   0.000000
    22  H    0.002642  -0.000472   0.000000   0.000000   0.000000   0.000000
    23  H   -0.000464   0.000839   0.000001   0.000000   0.000000   0.000000
    24  H   -0.020323  -0.028493   0.000003   0.000008   0.000000   0.000000
    25  H    0.499864  -0.025676   0.000000   0.000000   0.000000   0.000000
    26  H   -0.025676   0.503458   0.000001   0.000000   0.000000   0.000001
    27  H    0.000000   0.000001   0.483922  -0.003984  -0.005026   0.005179
[...]
 0.00037992,0.00022240,0.00072586,0.09563430,-0.00000243,-0.00010612,0.
 00001797,0.00000250,0.00004007,-0.00001527,0.00006116,-0.00005935,-0.0
 0004273,0.00016759,0.00007881,0.00022048,0.00065345,0.00036287,0.00043
 551,-0.00007102,-0.00026031,0.00011352,0.00008096,0.00008350,-0.000008
 32,0.00004222,-0.00002117,-0.00000427,0.00001688,-0.00002764,-0.000009
 88,-0.00002438,-0.00001778,-0.00001393,0.00000137,-0.00000252,-0.00000
 276,0.00000954,0.00000562,0.00000539,0.00614921,0.00431103,-0.01194339
 ,-0.04386292,-0.08987864,0.08973026,-0.00144497,-0.00037157,-0.0019181
 4,-0.00002480,0.00022736,-0.00013260,-0.00000211,-0.00000699,0.0000091
 6,0.00001628,0.00000005,-0.00000418,0.00000155,0.00000390,-0.00000088,
 -0.00000237,0.00000076,-0.00000050,-0.00000028,-0.00000013,0.00000014,
 0.00000147,0.00000145,0.00000068,-0.00000093,-0.00000077,-0.00000013,-
 0.00000349,0.00000237,-0.00000150,0.00000252,0.00000099,-0.00000401,-0
 .00000139,-0.00000118,0.00000119,0.00065643,0.00070815,0.00040560,0.04
 849700,0.09269292,-0.00035343,0.00025874,-0.00004462,0.00000225,0.0000
 4309,-0.00003944,-0.00007714,-0.00000480,-0.00009588,-0.00049055,-0.00
 028254,0.00025828,0.00152500,0.00035726,0.00200588,0.00006397,0.000068
 06,-0.00005300,0.00000605,-0.00003691,0.00002355,-0.00002161,-0.000011
 99,-0.00000284,-0.00003564,0.00001013,0.00000212,0.00000246,0.00001132
 ,-0.00001405,-0.00000327,-0.00000388,0.00000021,0.00000201,0.00000360,
 -0.00000321,0.01215012,0.01103302,-0.02263760,0.09089741,0.08811604,-0
 .23376714,-0.00387510,-0.00336282,-0.00321162,-0.00004433,-0.00007423,
 -0.00003021,-0.00000104,0.00000438,-0.00000011,-0.00000677,-0.00000021
 ,-0.00000366,-0.00000480,0.00000353,-0.00000172,0.00000088,-0.00000202
 ,0.00000040,-0.00000021,-0.00000026,0.00000017,-0.00000176,-0.00000069
 ,-0.00000161,0.00000059,-0.00000005,0.00000058,0.00000229,-0.00000084,
 0.00000402,0.00000129,-0.00000070,0.00000083,-0.00000029,-0.00000007,-
 0.00000032,0.00033017,-0.00008010,0.00101192,-0.09875151,-0.09489078,0
 .25548989,0.00080078,-0.00123853,0.00004570,-0.00036732,-0.00032829,0.
 00004135,-0.00102069,0.00025005,0.00017997,0.00088623,0.00117503,-0.00
 061467,-0.00183025,-0.00208493,-0.00304194,0.00008939,0.00014868,0.000
 00942,0.00003269,0.00001764,0.00001573,-0.00006728,0.00007858,-0.00000
 418,0.00000249,-0.00003504,0.00001449,0.00015810,0.00023967,0.00007802
 ,-0.00003897,-0.00003777,0.00002913,-0.00007258,-0.00006661,-0.0000304
 1,-0.01325971,0.00430829,0.00301572,-0.30681118,0.06326892,0.00520295,
 0.00015331,0.00029455,0.00095104,-0.00002648,-0.00005853,0.00000682,-0
 .00000822,0.00003018,0.00000186,-0.00001462,0.00001587,-0.00000429,-0.
 00002494,0.00000606,0.00000167,-0.00000224,-0.00001178,-0.00000231,0.0
 0000681,0.00000135,-0.00000186,-0.00002523,-0.00000712,-0.00002011,0.0
 0000500,0.00000734,0.00000118,0.00000788,0.00000081,-0.00000136,-0.000
 03027,-0.00000509,0.00003190,0.00000613,0.00000818,-0.00000267,0.00046
 376,-0.00031166,0.00031672,-0.01072210,0.00297226,-0.00060063,0.331915
 88,0.00012904,-0.00077622,-0.00023294,-0.00037293,-0.00022298,0.000065
 20,-0.00051519,0.00029563,0.00014987,0.00043337,0.00052830,-0.00026956
 ,-0.00289758,-0.00047544,-0.00299613,-0.00011166,-0.00028201,0.0002534
 8,0.00009473,0.00016723,0.00006499,0.00004025,0.00001114,-0.00004135,0
 .00006234,-0.00004814,0.00003164,0.00002432,0.00008369,0.00003777,-0.0
 0000750,-0.00001091,0.00000773,-0.00002354,-0.00002681,-0.00000600,-0.
 01238438,0.00175652,0.00101632,0.06463760,-0.06170961,-0.00144256,0.00
 017939,0.00021120,0.00037209,0.00027759,0.00020814,-0.00013448,0.00000
 033,-0.00000995,0.00000620,0.00002394,0.00000664,-0.00000751,-0.000002
 76,0.00000587,0.00001045,0.00000267,-0.00000014,-0.00000129,0.00000102
 ,0.00000119,-0.00000027,-0.00000660,-0.00000038,-0.00000521,-0.0000003
 6,0.00000190,-0.00000113,0.00000207,0.00000070,-0.00000139,-0.00001047
 ,-0.00000055,0.00001083,0.00000031,0.00000261,-0.00000007,-0.00000829,
 0.00050029,0.00082149,-0.01294381,0.00247498,-0.00076310,-0.06837757,0
 .06326530,0.00039832,-0.00093724,-0.00006193,-0.00033489,-0.00033428,0
 .00007231,-0.00107377,0.00016905,0.00025081,0.00032304,0.00094143,-0.0
 0059373,-0.00410516,-0.00297068,-0.00396469,0.00007560,0.00011669,0.00
 000633,0.00002063,0.00004223,0.00003300,-0.00003294,0.00005998,-0.0000
 0943,0.00000703,-0.00004381,0.00002734,0.00012095,0.00022522,0.0001127
 1,-0.00002675,-0.00002699,0.00002509,-0.00007269,-0.00006817,-0.000028
 16,-0.02494462,0.00818377,0.00106325,0.00800230,-0.00188491,-0.0475689
 3,-0.00006472,0.00051284,0.00095171,-0.00000116,0.00000619,-0.00005368
 ,-0.00000633,0.00002030,0.00000223,-0.00000705,0.00001293,-0.00000591,
 -0.00001894,0.00000566,-0.00000104,-0.00000179,-0.00001081,-0.00000374
 ,0.00000496,0.00000182,-0.00000163,-0.00002014,-0.00000519,-0.00001529
 ,0.00000388,0.00000631,0.00000023,0.00000741,-0.00000035,0.00000035,-0
 .00002798,-0.00000435,0.00003268,0.00000371,0.00000713,-0.00000367,0.0
 0049142,0.00008665,0.00114636,0.02560582,-0.00774962,0.00045923,-0.005
 36072,0.00374236,0.04964799,-0.00047333,-0.00019651,-0.00018022,-0.000
 10668,0.00000301,0.00005899,0.00019992,0.00014374,0.00003002,-0.000428
 46,-0.00020964,0.00007265,0.00149352,0.00008338,0.00075991,-0.00070911
 ,0.00035271,-0.00026733,0.00002361,0.00015250,-0.00001939,0.00004656,-
 0.00000055,-0.00003295,0.00010257,0.00000655,-0.00002717,-0.00006864,-
 0.00004592,-0.00001457,0.00001572,0.00000836,-0.00000860,0.00002202,0.
 00001444,0.00000643,0.00048070,-0.01732137,-0.00063272,-0.04833226,0.0
 2362911,0.00125031,0.00004190,0.00056890,0.00100039,-0.00021971,0.0007
 0402,-0.00074735,0.00000965,-0.00003136,0.00001036,0.00003404,-0.00000
 244,0.00001796,0.00001345,-0.00000056,-0.00000175,0.00001197,0.0000109
 5,-0.00000164,-0.00000158,0.00000050,0.00000047,0.00000718,0.00000331,
 0.00000636,-0.00000610,-0.00000217,-0.00000326,-0.00000222,0.00000094,
 0.00000041,0.00000847,0.00000297,-0.00000767,-0.00000537,-0.00000125,0
 .00000296,-0.00058723,-0.00100548,-0.00275933,0.00065748,-0.01370588,-
 0.00129798,-0.00119754,0.03173351,0.00070360,0.04876710,-0.00023043,-0
 .00033481,-0.00006408,-0.00047873,-0.00011862,-0.00004174,-0.00032002,
 0.00030405,0.00003367,0.00010659,0.00018215,0.00002347,-0.00003785,0.0
 0030566,-0.00008712,0.00067150,-0.00112910,0.00082864,0.00001388,0.000
 24277,0.00017831,0.00016639,0.00005833,-0.00006652,0.00009492,-0.00015
 598,0.00001087,0.00002134,0.00005234,-0.00000013,-0.00000533,-0.000004
 64,0.00000590,-0.00000700,-0.00000909,-0.00000449,0.00169641,-0.012382
 44,-0.00005638,0.02213523,-0.31923171,-0.00885202,-0.00010936,0.000845
 74,0.00063624,0.00121229,-0.00007238,0.00044088,-0.00000431,-0.0000107
 8,0.00000522,0.00003012,0.00000492,-0.00003046,-0.00000194,0.00000375,
 0.00001503,0.00000895,0.00000227,-0.00000026,0.00000108,0.00000031,0.0
 0000033,-0.00000447,-0.00000035,-0.00000375,-0.00000201,0.00000158,-0.
 00000187,0.00000067,-0.00000005,0.00000002,-0.00000443,-0.00000001,0.0
 0000486,-0.00000216,0.00000116,0.00000147,-0.00141487,0.00091848,-0.00
 205514,0.00164303,-0.01082724,-0.00099731,-0.00003177,-0.00607821,0.00
 009515,-0.02529799,0.34679379,-0.00022587,-0.00039758,0.00006430,-0.00
 022691,0.00009418,0.00000689,0.00004658,0.00024620,0.00005767,-0.00038
 546,-0.00014053,0.00009227,0.00107163,0.00097751,0.00091848,-0.0007146
 5,0.00009385,-0.00007059,0.00019147,0.00015924,-0.00006868,0.00002124,
 -0.00003810,-0.00000790,0.00006074,-0.00000144,-0.00003627,-0.00002028
 ,0.00000559,-0.00002167,0.00000281,0.00000060,0.00000036,0.00000861,0.
 00000771,0.00000128,0.00417144,-0.02983362,-0.00162616,0.00069340,-0.0
 0729361,-0.04797918,0.00026982,-0.00070398,0.00214856,-0.00069389,0.00
 081968,-0.00050354,0.00000399,-0.00001859,0.00000736,0.00003538,0.0000
 0729,0.00001580,0.00000107,0.00000705,0.00000143,0.00001279,0.00001020
 ,-0.00000153,0.,0.00000016,0.00000057,0.00000065,0.00000159,0.00000032
 ,-0.00000375,0.00000002,-0.00000253,0.00000006,0.00000123,-0.00000038,
 0.00000150,0.00000089,-0.00000336,-0.00000254,0.00000005,0.00000349,-0
 .00271256,-0.00158964,-0.00410981,-0.00372005,0.02665799,0.00161359,0.
 00006545,-0.00076011,-0.00127664,0.00209625,0.01070006,0.05086762,-0.0
 0006525,0.00026021,-0.00004301,0.00008281,0.00004928,-0.00000073,0.000
 25216,-0.00007132,0.00002897,0.00007687,-0.00014111,-0.00015347,0.0016
 2530,0.00075034,-0.00004578,-0.00000585,0.00002782,0.00002867,-0.00001
 904,-0.00002050,-0.00001226,0.00000832,-0.00002472,0.00000963,-0.00001
 279,0.00001377,-0.00000532,-0.00003696,-0.00005769,0.00000841,0.000016
 10,0.00001292,-0.00000903,0.00001409,0.00001114,0.00000702,0.00415859,
 0.00640098,0.01239541,-0.00072926,-0.00093889,0.00203034,-0.10595556,-
 0.05416268,-0.10078898,0.00001034,-0.00004229,-0.00001474,0.00000134,-
 0.00000594,0.00000194,-0.00000083,-0.00000489,-0.00000311,0.00000424,-
 0.00000032,0.00000002,-0.00000277,0.00000108,0.00000079,-0.00001118,-0
 .00000371,0.00000160,0.00000747,0.00000167,0.00000638,-0.00000107,-0.0
 0000121,0.00000065,-0.00000383,-0.00000168,0.00000066,0.00000621,0.000
 00176,-0.00000588,-0.00000055,-0.00000150,0.00000005,0.00030398,0.0001
 9955,-0.00068139,0.00057141,0.00001713,0.00059299,0.00030636,-0.000054
 99,0.00015491,-0.00011397,-0.00010133,-0.00010651,0.11095958,0.0000109
 4,-0.00011701,-0.00001581,0.00000312,0.00003864,0.00001180,0.00006660,
 -0.00005766,0.00003617,0.00017170,0.00008228,-0.00022633,0.00055888,0.
 00032980,-0.00040896,-0.00008029,-0.00026653,-0.00009951,0.00008020,0.
 00008493,-0.00000021,0.00004332,-0.00002022,0.00000173,0.00001912,-0.0
 0002779,0.00000969,-0.00002331,-0.00001753,0.00001586,0.00000898,0.000
 00522,-0.00000641,0.00000168,-0.00000228,0.00000273,0.00643138,0.00428
 151,0.01036145,-0.00114633,-0.00015523,0.00187906,-0.05450474,-0.09728
 720,-0.09140439,-0.00001465,0.00023483,0.00012414,-0.00000272,-0.00000
 750,-0.00000866,0.00001673,0.00000019,0.00000282,0.00000179,0.00000377
 ,0.00000052,-0.00000236,0.00000086,0.00000066,-0.00000341,0.00000247,0
 .00000182,0.00000274,0.00000118,0.00000378,-0.00000147,-0.00000121,-0.
 00000104,-0.00000028,-0.00000012,-0.00000011,0.00000147,0.00000144,-0.
 00000090,-0.00000093,-0.00000076,0.00000025,0.00061179,0.00069424,-0.0
 0043789,0.00003879,0.00047356,0.00062220,-0.00020858,-0.00010866,-0.00
 015460,0.00001930,0.00023018,0.00033523,0.05988109,0.10060766,0.000354
 81,-0.00027567,-0.00005671,-0.00001161,-0.00004993,-0.00003809,0.00004
 926,0.00000857,-0.00010541,0.00049632,0.00029954,0.00023131,-0.0015192
 8,-0.00034278,0.00215388,-0.00006385,-0.00006081,-0.00004316,-0.000006
 17,0.00003584,0.00002349,0.00001884,0.00001452,-0.00000571,0.00003602,
 -0.00000987,-0.00000017,0.00000010,-0.00000701,-0.00001462,-0.00000376
 ,-0.00000486,-0.00000199,0.00000218,0.00000319,-0.00000081,-0.01440631
 ,-0.01263251,-0.02262489,0.00373531,0.00331024,-0.00386752,-0.09810387
 ,-0.08981620,-0.21207763,0.00004131,0.00006654,-0.00004037,0.00000107,
 -0.00000366,0.00000020,0.00000587,0.00000039,-0.00000405,0.00000431,-0
 .00000375,-0.00000196,-0.00000055,0.00000194,0.00000029,-0.00000099,0.
 00000118,0.00000395,-0.00000188,0.00000057,0.00000028,0.00000039,0.000
 00019,-0.00000035,0.00000051,0.00000040,0.00000010,0.00000113,0.000000
 43,-0.00000131,-0.00000047,0.00000022,0.00000061,-0.00030265,0.0000788
 5,0.00110188,-0.00075289,-0.00070846,-0.00156161,-0.00005044,0.0001116
 0,0.00036820,0.00009969,-0.00006198,0.00021700,0.10697935,0.09693099,0
 .23224396,0.00076439,-0.00116740,-0.00006056,-0.00034252,-0.00030307,0
 .00000198,-0.00094715,0.00023157,-0.00009960,0.00089780,0.00112163,0.0
 0045799,-0.00130640,-0.00174175,0.00291396,0.00008213,0.00013958,-0.00
 002029,0.00003001,0.00001372,-0.00001603,-0.00006437,0.00007401,0.0000
 0520,0.00000102,-0.00003211,-0.00001128,0.00014267,0.00021894,-0.00008
 914,-0.00006450,-0.00006008,0.00003555,-0.00003875,-0.00003662,-0.0000
 2289,-0.01154622,0.00358277,-0.00222473,0.00009179,0.00021878,-0.00089
 728,-0.30651342,0.06341437,0.01146067,-0.00002694,-0.00005912,-0.00000
 661,-0.00000786,0.00002850,-0.00000227,-0.00001377,0.00001502,0.000004
 27,-0.00002353,0.00000558,-0.00000023,-0.00000192,-0.00001085,0.000002
 62,0.00000739,0.00000089,0.00000083,-0.00003021,-0.00000587,-0.0000269
 4,0.00000600,0.00000772,0.00000161,0.00000652,0.00000125,0.00000122,-0
 .00002215,-0.00000592,0.00002090,0.00000456,0.00000677,-0.00000180,0.0
 0040843,-0.00032784,-0.00024740,0.00029942,-0.00019355,0.00006364,0.00
 068572,0.00001014,0.00016093,-0.00000079,-0.00001931,0.00001682,-0.012
 49932,0.00357912,0.00141576,0.33132124,0.00012879,-0.00072433,0.000250
 83,-0.00036120,-0.00020990,-0.00002684,-0.00047787,0.00028263,-0.00011
 496,0.00043421,0.00049535,0.00019170,-0.00250424,-0.00022744,0.0030307
 8,-0.00013139,-0.00029426,-0.00023107,0.00008800,0.00016170,-0.0000765
 8,0.00004406,0.00001026,0.00003724,0.00005943,-0.00004732,-0.00003309,
 0.00001652,0.00007251,-0.00003715,-0.00001993,-0.00002362,0.00000724,-
 0.00000683,-0.00000997,-0.00000577,-0.01136699,0.00138741,-0.00017916,
 0.00015634,0.00017542,-0.00035083,0.06463060,-0.06176638,-0.00277026,0
 .00028300,0.00021198,0.00010347,0.00000018,-0.00001099,-0.00000565,0.0
 0002455,0.00000632,0.00000516,-0.00000276,0.00000520,-0.00001055,0.000
 00281,0.00000035,0.00000090,0.00000186,0.00000076,0.00000124,-0.000009
 94,-0.00000073,-0.00000867,0.00000013,0.00000230,-0.00000019,0.0000008
 2,0.00000111,0.00000010,-0.00000537,0.00000002,0.00000497,-0.00000042,
 0.00000167,0.00000110,-0.00008790,0.00046482,-0.00078835,-0.00006882,-
 0.00010559,-0.00008725,-0.00000213,0.00021176,-0.00007055,0.00006940,0
 .00001905,0.00007030,-0.01387766,0.00284003,0.00169849,-0.06867214,0.0
 6316774,-0.00046640,0.00105569,-0.00007606,0.00038045,0.00036881,0.000
 03493,0.00118413,-0.00019026,0.00018939,-0.00045220,-0.00107121,-0.000
 57343,0.00400948,0.00294664,-0.00473590,-0.00007514,-0.00011486,0.0000
 2742,-0.00002420,-0.00004872,0.00004051,0.00003538,-0.00006643,-0.0000
 1131,-0.00000746,0.00004938,0.00002829,-0.00012362,-0.00024040,0.00013
 904,0.00007613,0.00007263,-0.00003928,0.00003180,0.00003115,0.00002394
 ,0.02638680,-0.00852588,-0.00028584,0.00012309,-0.00049927,0.00104968,
 0.00860816,-0.00223179,-0.04779311,-0.00001286,-0.00001285,-0.00005724
 ,0.00000711,-0.00002196,0.00000297,0.00000664,-0.00001461,-0.00000643,
 0.00002077,-0.00000639,-0.00000177,0.00000154,0.00001150,-0.00000455,-
 0.00000803,0.00000026,0.00000075,0.00003314,0.00000607,0.00003275,-0.0
 0000444,-0.00000798,-0.00000319,-0.00000559,-0.00000201,-0.00000130,0.
 00002087,0.00000501,-0.00001879,-0.00000417,-0.00000688,0.00000088,-0.
 00043220,-0.00003371,0.00123747,-0.00014736,0.00018926,0.00037230,-0.0
 0025396,0.00003890,-0.00056519,-0.00002143,-0.00002690,-0.00004803,-0.
 02410167,0.00744797,0.00186866,-0.01277367,0.00079116,0.05033023,-0.00
 044095,-0.00015547,0.00022555,-0.00009237,-0.00000600,-0.00005126,0.00
 019380,0.00012260,-0.00004508,-0.00040260,-0.00020092,-0.00002817,0.00
 135550,-0.00002068,-0.00079450,-0.00062957,0.00035659,0.00029656,0.000
 01011,0.00013948,0.00000816,0.00004625,0.00000333,0.00002848,0.0000988
 2,0.00000806,0.00001682,-0.00006556,-0.00004553,0.00001973,0.00002072,
 0.00001355,-0.00000841,0.00001600,0.00000860,0.00000708,0.00022568,-0.
 01500840,0.00111390,-0.00004150,0.00058328,-0.00086211,-0.04853031,0.0
 2439663,-0.00222799,-0.00010708,0.00065452,0.00067887,0.00000865,-0.00
 003018,-0.00000914,0.00002982,-0.00000371,-0.00001887,0.00001339,-0.00
 000106,0.00000095,0.00001102,0.00001016,0.00000029,-0.00000223,0.00000
 083,-0.00000031,0.00000885,0.00000317,0.00000662,-0.00000535,-0.000001
 36,-0.00000223,-0.00000160,0.00000048,-0.00000034,0.00000660,0.0000028
 9,-0.00000695,-0.00000550,-0.00000202,0.00000355,-0.00019708,-0.000784
 78,0.00249998,-0.00011153,-0.00000900,-0.00007507,-0.00000091,0.000064
 98,0.00001515,0.00031717,0.00027092,0.00004075,0.00105306,-0.01555967,
 0.00198246,-0.00129926,0.03165491,-0.00201109,0.04851798,-0.00021305,-
 0.00031365,0.00009434,-0.00046387,-0.00011933,0.00008172,-0.00032382,0
 .00029193,-0.00001878,0.00012126,0.00018721,-0.00003613,-0.00007692,0.
 00027077,0.00012092,0.00063932,-0.00115746,-0.00083282,-0.00000962,0.0
 0022693,-0.00018935,0.00016888,0.00006294,0.00005096,0.00009130,-0.000
 15628,-0.00001282,0.00002215,0.00005210,-0.00000450,-0.00000703,-0.000
 00924,0.00000547,-0.00000593,-0.00000490,-0.00000529,0.00153443,-0.011
 10148,0.00033085,-0.00016231,0.00085047,-0.00057050,0.02305936,-0.3182
 2361,0.01833904,0.00117833,-0.00011343,-0.00053003,-0.00000478,-0.0000
 1001,-0.00000411,0.00003054,0.00000581,0.00002860,-0.00000315,0.000002
 83,-0.00001495,0.00000836,0.00000182,-0.00000051,0.00000067,-0.0000001
 0,-0.00000008,-0.00000488,-0.00000025,-0.00000465,-0.00000213,0.000001
 12,-0.00000120,0.00000106,0.00000028,-0.00000040,-0.00000422,-0.000000
 28,0.00000412,-0.00000168,0.00000165,0.00000181,-0.00115917,0.00106293
 ,0.00192944,-0.00009128,0.00021862,0.00006917,-0.00001805,0.00001694,0
 .00002582,0.00031352,0.00038889,0.00058062,0.00188369,-0.01184309,0.00
 141380,-0.00003477,-0.00609788,0.00010768,-0.02646620,0.34550777,0.000
 27294,0.00042471,0.00000989,0.00025352,-0.00008898,-0.00000578,-0.0000
 4307,-0.00026530,0.00007520,0.00041775,0.00015114,0.00006170,-0.001100
 03,-0.00095077,0.00109356,0.00072725,-0.00007757,-0.00010851,-0.000196
 06,-0.00018125,-0.00004063,-0.00003198,0.00003482,-0.00001213,-0.00007
 456,0.00000577,-0.00003260,0.00002258,-0.00000530,-0.00002425,-0.00000
 975,-0.00000828,0.00000263,-0.00000370,-0.00000102,0.00000031,-0.00442
 256,0.03143109,-0.00264070,-0.00010119,0.00071666,0.00222703,-0.001612
 83,0.01668391,-0.04881654,0.00060682,-0.00087405,-0.00054042,-0.000003
 94,0.00002158,0.00000776,-0.00003759,-0.00000656,0.00001890,-0.0000018
 0,-0.00000703,0.00000233,-0.00001404,-0.00001108,-0.00000017,0.0000000
 6,-0.00000130,-0.00000029,-0.00000221,-0.00000124,-0.00000351,0.000003
 30,0.00000014,0.00000351,0.00000012,-0.00000019,0.00000062,-0.00000094
 ,-0.00000177,0.00000077,0.00000400,-0.00000004,-0.00000314,0.00246804,
 0.00143554,-0.00464333,0.00013531,-0.00033582,0.00022568,-0.00001957,-
 0.00007780,-0.00004615,-0.00009337,-0.00062994,-0.00026072,0.00372412,
 -0.02502403,0.00223255,-0.00006324,-0.00139776,-0.00115781,-0.00080338
 ,-0.02095826,0.05237424\\-0.00000267,-0.00001563,0.00003224,-0.0000121
 3,0.00000467,-0.00000882,-0.00000368,-0.00000250,0.00001715,0.00000402
 ,-0.00001298,-0.00002161,0.00000483,0.00003412,-0.00000843,0.00001832,
 0.00000753,-0.00000306,-0.00001443,0.00000601,0.00000270,0.00001445,0.
 00000052,-0.00000692,-0.00000089,0.00000120,-0.00001881,0.00000373,0.0
 0000358,0.00000622,0.00000601,0.00000046,-0.00000110,-0.00000764,-0.00
 000356,0.00000147,0.00001779,-0.00000888,-0.00000748,-0.00000619,-0.00
 000427,0.00000670,-0.00001364,0.00000150,0.00001049,-0.00001160,0.0000
 0058,0.00001092,-0.00000073,0.00000015,-0.00000206,0.00000061,0.000000
 11,0.00000442,0.00000083,-0.00000008,-0.00000134,-0.00000222,-0.000000
 37,0.00000380,0.00000030,0.00000080,-0.00000003,0.00000057,-0.00000238
 ,-0.00000018,-0.00000137,0.00000670,0.00000373,-0.00000124,-0.00000112
 ,0.00000027,-0.00000297,0.00000191,0.00000301,0.00000212,-0.00000834,0
 .00000250,0.00000658,-0.00001882,-0.00000777,-0.00000022,0.00000161,-0
 .00000692,-0.00000728,0.00000358,-0.00000264,-0.00000345,0.00001133,-0
 .00000076,0.00000447,0.00000253,0.00000066,-0.00000301,0.00000064,0.00
 000446,0.00001072,-0.00001059,-0.00001280\\\@


 KNIGHT- SIRE, I'VE JUST RETURNED FROM THE FRONT
 KING-   HOW GOES THE BATTLE                    
 KNIGHT- THE SITUATION IS QUITE FLUID           
 KING-   WHAT DOES *THAT* MEAN                  
 KNIGHT- WE'RE UP THE CREEK                     
                THE WIZARD OF ID                
 Job cpu time:       1 days 15 hours 54 minutes 11.5 seconds.
 File lengths (MBytes):  RWF=   1076 Int=      0 D2E=      0 Chk=     23 Scr=      1
 Normal termination of Gaussian 09 at Sat Jun 19 17:09:49 2021.
