 Entering Gaussian System, Link 0=g09
 Input=NHC19.gjf
 Output=NHC19.log
 Initial command:
 /usr/local/gqt/g09/l1.exe "/usr/local/gqt/lixogaussian/Gau-31203.inp" -scrdir="/usr/local/gqt/lixogaussian/"
 Entering Link 1 = /usr/local/gqt/g09/l1.exe PID=     31205.
  
 Copyright (c) 1988,1990,1992,1993,1995,1998,2003,2009,2013,
            Gaussian, Inc.  All Rights Reserved.
  
 This is part of the Gaussian(R) 09 program.  It is based on
 the Gaussian(R) 03 system (copyright 2003, Gaussian, Inc.),
 the Gaussian(R) 98 system (copyright 1998, Gaussian, Inc.),
 the Gaussian(R) 94 system (copyright 1995, Gaussian, Inc.),
 the Gaussian 92(TM) system (copyright 1992, Gaussian, Inc.),
 the Gaussian 90(TM) system (copyright 1990, Gaussian, Inc.),
 the Gaussian 88(TM) system (copyright 1988, Gaussian, Inc.),
 the Gaussian 86(TM) system (copyright 1986, Carnegie Mellon
 University), and the Gaussian 82(TM) system (copyright 1983,
 Carnegie Mellon University). Gaussian is a federally registered
 trademark of Gaussian, Inc.
  
 This software contains proprietary and confidential information,
 including trade secrets, belonging to Gaussian, Inc.
  
 This software is provided under written license and may be
 used, copied, transmitted, or stored only in accord with that
 written license.
  
 The following legend is applicable only to US Government
 contracts under FAR:
  
                    RESTRICTED RIGHTS LEGEND
  
 Use, reproduction and disclosure by the US Government is
 subject to restrictions as set forth in subparagraphs (a)
 and (c) of the Commercial Computer Software - Restricted
 Rights clause in FAR 52.227-19.
  
 Gaussian, Inc.
 340 Quinnipiac St., Bldg. 40, Wallingford CT 06492
  
  
 ---------------------------------------------------------------
 Warning -- This program may not be used in any manner that
 competes with the business of Gaussian, Inc. or will provide
 assistance to any competitor of Gaussian, Inc.  The licensee
 of this program is prohibited from giving any competitor of
 Gaussian, Inc. access to this program.  By using this program,
 the user acknowledges that Gaussian, Inc. is engaged in the
 business of creating and licensing software in the field of
 computational chemistry and represents and warrants to the
 licensee that it is not a competitor of Gaussian, Inc. and that
 it will not use this program in any manner prohibited above.
 ---------------------------------------------------------------
  

 Cite this work as:
 Gaussian 09, Revision D.01,
 M. J. Frisch, G. W. Trucks, H. B. Schlegel, G. E. Scuseria, 
 M. A. Robb, J. R. Cheeseman, G. Scalmani, V. Barone, B. Mennucci, 
 G. A. Petersson, H. Nakatsuji, M. Caricato, X. Li, H. P. Hratchian, 
 A. F. Izmaylov, J. Bloino, G. Zheng, J. L. Sonnenberg, M. Hada, 
 M. Ehara, K. Toyota, R. Fukuda, J. Hasegawa, M. Ishida, T. Nakajima, 
 Y. Honda, O. Kitao, H. Nakai, T. Vreven, J. A. Montgomery, Jr., 
 J. E. Peralta, F. Ogliaro, M. Bearpark, J. J. Heyd, E. Brothers, 
 K. N. Kudin, V. N. Staroverov, T. Keith, R. Kobayashi, J. Normand, 
 K. Raghavachari, A. Rendell, J. C. Burant, S. S. Iyengar, J. Tomasi, 
 M. Cossi, N. Rega, J. M. Millam, M. Klene, J. E. Knox, J. B. Cross, 
 V. Bakken, C. Adamo, J. Jaramillo, R. Gomperts, R. E. Stratmann, 
 O. Yazyev, A. J. Austin, R. Cammi, C. Pomelli, J. W. Ochterski, 
 R. L. Martin, K. Morokuma, V. G. Zakrzewski, G. A. Voth, 
 P. Salvador, J. J. Dannenberg, S. Dapprich, A. D. Daniels, 
 O. Farkas, J. B. Foresman, J. V. Ortiz, J. Cioslowski, 
 and D. J. Fox, Gaussian, Inc., Wallingford CT, 2013.
 
 ******************************************
 Gaussian 09:  ES64L-G09RevD.01 24-Apr-2013
                20-Jun-2021 
 ******************************************
 %nprocshared=16
 Will use up to   16 processors via shared memory.
 %mem=25GB
 %chk=NHC19.chk
 ----------------------------------------------------------
 #p opt freq n12sx/6-311+g(d,p) scrf=(iefpcm,solvent=water)
 ----------------------------------------------------------
 1/14=-1,18=20,19=15,26=3,38=1/1,3;
 2/9=110,12=2,17=6,18=5,40=1/2;
 3/5=4,6=6,7=111,11=2,16=1,25=1,30=1,70=2201,71=1,72=1,74=-69/1,2,3;
 4//1;
 5/5=2,38=5,53=1/2;
 6/7=2,8=2,9=2,10=2,28=1/1;
 7//1,2,3,16;
 1/14=-1,18=20,19=15,26=3/3(2);
 2/9=110/2;
 99//99;
 2/9=110/2;
 3/5=4,6=6,7=111,11=2,16=1,25=1,30=1,70=2205,71=1,72=1,74=-69/1,2,3;
 4/5=5,16=3,69=1/1;
 5/5=2,38=5,53=1/2;
 7//1,2,3,16;
 1/14=-1,18=20,19=15,26=3/3(-5);
 2/9=110/2;
 6/7=2,8=2,9=2,10=2,19=2,28=1/1;
 99/9=1/99;
 Leave Link    1 at Sun Jun 20 23:32:17 2021, MaxMem=  3355443200 cpu:         0.6
 (Enter /usr/local/gqt/g09/l101.exe)
 -----
 TITLE
 -----
 Symbolic Z-matrix:
 Charge =  0 Multiplicity = 1
 6                     0.65114   1.30795   0.00011 
 6                    -0.86599   1.0669    0.00003 
 7                    -0.98111  -0.30533  -0.00005 
 6                     0.22982  -0.93368  -0.00003 
 7                     1.18361   0.04225  -0.00004 
 8                    -1.71962   1.90618  -0.00002 
 8                     1.20908   2.36744   0.00029 
 6                    -2.25196  -1.0472   -0.00007 
 6                    -3.04192  -0.76897  -1.26747 
 6                    -3.04184  -0.76908   1.26742 
 6                     2.62892  -0.22938   0.00006 
 6                     3.26325   0.28369   1.27971 
 6                     3.27451   0.3425   -1.24864 
 1                    -1.93602  -2.0874   -0.00012 
 1                    -2.44792  -0.98844  -2.15192 
 1                    -3.92641  -1.40148  -1.2868 
 1                    -3.36609   0.26793  -1.31207 
 1                    -2.44769  -0.98845   2.15179 
 1                    -3.9262   -1.40178   1.28687 
 1                    -3.36619   0.26776   1.31205 
 1                     2.70131  -1.31467  -0.02485 
 1                     2.79257  -0.15786   2.15534 
 1                     4.31989   0.02652   1.29316 
 1                     3.17223   1.36595   1.34462 
 1                     2.81151  -0.05747  -2.14802 
 1                     4.33118   0.08565  -1.26478 
 1                     3.18417   1.42665  -1.26376 
 
 NAtoms=     27 NQM=       27 NQMF=       0 NMMI=      0 NMMIF=      0
                NMic=       0 NMicF=      0.
                    Isotopes and Nuclear Properties:
 (Nuclear quadrupole moments (NQMom) in fm**2, nuclear magnetic moments (NMagM)
  in nuclear magnetons)

  Atom         1           2           3           4           5           6           7           8           9          10
 IAtWgt=          12          12          14          12          14          16          16          12          12          12
 AtmWgt=  12.0000000  12.0000000  14.0030740  12.0000000  14.0030740  15.9949146  15.9949146  12.0000000  12.0000000  12.0000000
 NucSpn=           0           0           2           0           2           0           0           0           0           0
 AtZEff=   0.0000000   0.0000000   0.0000000   0.0000000   0.0000000   0.0000000   0.0000000   0.0000000   0.0000000   0.0000000
 NQMom=    0.0000000   0.0000000   2.0440000   0.0000000   2.0440000   0.0000000   0.0000000   0.0000000   0.0000000   0.0000000
 NMagM=    0.0000000   0.0000000   0.4037610   0.0000000   0.4037610   0.0000000   0.0000000   0.0000000   0.0000000   0.0000000
 AtZNuc=   6.0000000   6.0000000   7.0000000   6.0000000   7.0000000   8.0000000   8.0000000   6.0000000   6.0000000   6.0000000

  Atom        11          12          13          14          15          16          17          18          19          20
 IAtWgt=          12          12          12           1           1           1           1           1           1           1
 AtmWgt=  12.0000000  12.0000000  12.0000000   1.0078250   1.0078250   1.0078250   1.0078250   1.0078250   1.0078250   1.0078250
 NucSpn=           0           0           0           1           1           1           1           1           1           1
 AtZEff=   0.0000000   0.0000000   0.0000000   0.0000000   0.0000000   0.0000000   0.0000000   0.0000000   0.0000000   0.0000000
 NQMom=    0.0000000   0.0000000   0.0000000   0.0000000   0.0000000   0.0000000   0.0000000   0.0000000   0.0000000   0.0000000
 NMagM=    0.0000000   0.0000000   0.0000000   2.7928460   2.7928460   2.7928460   2.7928460   2.7928460   2.7928460   2.7928460
 AtZNuc=   6.0000000   6.0000000   6.0000000   1.0000000   1.0000000   1.0000000   1.0000000   1.0000000   1.0000000   1.0000000

  Atom        21          22          23          24          25          26          27
 IAtWgt=           1           1           1           1           1           1           1
 AtmWgt=   1.0078250   1.0078250   1.0078250   1.0078250   1.0078250   1.0078250   1.0078250
 NucSpn=           1           1           1           1           1           1           1
 AtZEff=   0.0000000   0.0000000   0.0000000   0.0000000   0.0000000   0.0000000   0.0000000
 NQMom=    0.0000000   0.0000000   0.0000000   0.0000000   0.0000000   0.0000000   0.0000000
 NMagM=    2.7928460   2.7928460   2.7928460   2.7928460   2.7928460   2.7928460   2.7928460
 AtZNuc=   1.0000000   1.0000000   1.0000000   1.0000000   1.0000000   1.0000000   1.0000000
 Leave Link  101 at Sun Jun 20 23:32:17 2021, MaxMem=  3355443200 cpu:         6.8
 (Enter /usr/local/gqt/g09/l103.exe)

 GradGradGradGradGradGradGradGradGradGradGradGradGradGradGradGradGradGrad
 Berny optimization.
 Initialization pass.
                           ----------------------------
                           !    Initial Parameters    !
                           ! (Angstroms and Degrees)  !
 --------------------------                            --------------------------
 ! Name  Definition              Value          Derivative Info.                !
 --------------------------------------------------------------------------------
 ! R1    R(1,2)                  1.5362         estimate D2E/DX2                !
 ! R2    R(1,5)                  1.3731         estimate D2E/DX2                !
 ! R3    R(1,7)                  1.1974         estimate D2E/DX2                !
 ! R4    R(2,3)                  1.377          estimate D2E/DX2                !
 ! R5    R(2,6)                  1.1971         estimate D2E/DX2                !
 ! R6    R(3,4)                  1.3642         estimate D2E/DX2                !
 ! R7    R(3,8)                  1.4715         estimate D2E/DX2                !
 ! R8    R(4,5)                  1.3646         estimate D2E/DX2                !
 ! R9    R(5,11)                 1.4706         estimate D2E/DX2                !
 ! R10   R(8,9)                  1.5191         estimate D2E/DX2                !
 ! R11   R(8,10)                 1.5191         estimate D2E/DX2                !
 ! R12   R(8,14)                 1.0871         estimate D2E/DX2                !
 ! R13   R(9,15)                 1.0878         estimate D2E/DX2                !
 ! R14   R(9,16)                 1.0875         estimate D2E/DX2                !
 ! R15   R(9,17)                 1.0873         estimate D2E/DX2                !
 ! R16   R(10,18)                1.0878         estimate D2E/DX2                !
 ! R17   R(10,19)                1.0875         estimate D2E/DX2                !
 ! R18   R(10,20)                1.0873         estimate D2E/DX2                !
 ! R19   R(11,12)                1.5176         estimate D2E/DX2                !
 ! R20   R(11,13)                1.5176         estimate D2E/DX2                !
 ! R21   R(11,21)                1.088          estimate D2E/DX2                !
 ! R22   R(12,22)                1.0878         estimate D2E/DX2                !
 ! R23   R(12,23)                1.0876         estimate D2E/DX2                !
 ! R24   R(12,24)                1.088          estimate D2E/DX2                !
 ! R25   R(13,25)                1.0878         estimate D2E/DX2                !
 ! R26   R(13,26)                1.0876         estimate D2E/DX2                !
 ! R27   R(13,27)                1.088          estimate D2E/DX2                !
 ! A1    A(2,1,5)              103.7878         estimate D2E/DX2                !
 ! A2    A(2,1,7)              126.8002         estimate D2E/DX2                !
 ! A3    A(5,1,7)              129.412          estimate D2E/DX2                !
 ! A4    A(1,2,3)              103.8235         estimate D2E/DX2                !
 ! A5    A(1,2,6)              126.4571         estimate D2E/DX2                !
 ! A6    A(3,2,6)              129.7193         estimate D2E/DX2                !
 ! A7    A(2,3,4)              112.6294         estimate D2E/DX2                !
 ! A8    A(2,3,8)              125.07           estimate D2E/DX2                !
 ! A9    A(4,3,8)              122.3005         estimate D2E/DX2                !
 ! A10   A(3,4,5)              106.9179         estimate D2E/DX2                !
 ! A11   A(1,5,4)              112.8414         estimate D2E/DX2                !
 ! A12   A(1,5,11)             123.46           estimate D2E/DX2                !
 ! A13   A(4,5,11)             123.6987         estimate D2E/DX2                !
 ! A14   A(3,8,9)              110.9019         estimate D2E/DX2                !
 ! A15   A(3,8,10)             110.8993         estimate D2E/DX2                !
 ! A16   A(3,8,14)             103.3797         estimate D2E/DX2                !
 ! A17   A(9,8,10)             113.09           estimate D2E/DX2                !
 ! A18   A(9,8,14)             109.0465         estimate D2E/DX2                !
 ! A19   A(10,8,14)            109.0456         estimate D2E/DX2                !
 ! A20   A(8,9,15)             110.9426         estimate D2E/DX2                !
 ! A21   A(8,9,16)             109.343          estimate D2E/DX2                !
 ! A22   A(8,9,17)             111.3406         estimate D2E/DX2                !
 ! A23   A(15,9,16)            108.1988         estimate D2E/DX2                !
 ! A24   A(15,9,17)            108.7758         estimate D2E/DX2                !
 ! A25   A(16,9,17)            108.1459         estimate D2E/DX2                !
 ! A26   A(8,10,18)            110.9411         estimate D2E/DX2                !
 ! A27   A(8,10,19)            109.3433         estimate D2E/DX2                !
 ! A28   A(8,10,20)            111.3419         estimate D2E/DX2                !
 ! A29   A(18,10,19)           108.1973         estimate D2E/DX2                !
 ! A30   A(18,10,20)           108.776          estimate D2E/DX2                !
 ! A31   A(19,10,20)           108.147          estimate D2E/DX2                !
 ! A32   A(5,11,12)            110.3893         estimate D2E/DX2                !
 ! A33   A(5,11,13)            110.3911         estimate D2E/DX2                !
 ! A34   A(5,11,21)            104.4559         estimate D2E/DX2                !
 ! A35   A(12,11,13)           112.8674         estimate D2E/DX2                !
 ! A36   A(12,11,21)           109.192          estimate D2E/DX2                !
 ! A37   A(13,11,21)           109.1933         estimate D2E/DX2                !
 ! A38   A(11,12,22)           111.1413         estimate D2E/DX2                !
 ! A39   A(11,12,23)           109.6682         estimate D2E/DX2                !
 ! A40   A(11,12,24)           110.5866         estimate D2E/DX2                !
 ! A41   A(22,12,23)           108.3281         estimate D2E/DX2                !
 ! A42   A(22,12,24)           108.6365         estimate D2E/DX2                !
 ! A43   A(23,12,24)           108.4061         estimate D2E/DX2                !
 ! A44   A(11,13,25)           111.1424         estimate D2E/DX2                !
 ! A45   A(11,13,26)           109.6654         estimate D2E/DX2                !
 ! A46   A(11,13,27)           110.5858         estimate D2E/DX2                !
 ! A47   A(25,13,26)           108.3277         estimate D2E/DX2                !
 ! A48   A(25,13,27)           108.6366         estimate D2E/DX2                !
 ! A49   A(26,13,27)           108.4089         estimate D2E/DX2                !
 ! D1    D(5,1,2,3)              0.0041         estimate D2E/DX2                !
 ! D2    D(5,1,2,6)           -179.9917         estimate D2E/DX2                !
 ! D3    D(7,1,2,3)           -179.9938         estimate D2E/DX2                !
 ! D4    D(7,1,2,6)              0.0103         estimate D2E/DX2                !
 ! D5    D(2,1,5,4)             -0.0072         estimate D2E/DX2                !
 ! D6    D(2,1,5,11)          -179.9959         estimate D2E/DX2                !
 ! D7    D(7,1,5,4)            179.9907         estimate D2E/DX2                !
 ! D8    D(7,1,5,11)             0.0019         estimate D2E/DX2                !
 ! D9    D(1,2,3,4)              0.0002         estimate D2E/DX2                !
 ! D10   D(1,2,3,8)            179.9969         estimate D2E/DX2                !
 ! D11   D(6,2,3,4)            179.9958         estimate D2E/DX2                !
 ! D12   D(6,2,3,8)             -0.0075         estimate D2E/DX2                !
 ! D13   D(2,3,4,5)             -0.0045         estimate D2E/DX2                !
 ! D14   D(8,3,4,5)            179.9987         estimate D2E/DX2                !
 ! D15   D(2,3,8,9)             63.2632         estimate D2E/DX2                !
 ! D16   D(2,3,8,10)           -63.2634         estimate D2E/DX2                !
 ! D17   D(2,3,8,14)          -179.999          estimate D2E/DX2                !
 ! D18   D(4,3,8,9)           -116.7404         estimate D2E/DX2                !
 ! D19   D(4,3,8,10)           116.733          estimate D2E/DX2                !
 ! D20   D(4,3,8,14)            -0.0026         estimate D2E/DX2                !
 ! D21   D(3,4,5,1)              0.0075         estimate D2E/DX2                !
 ! D22   D(3,4,5,11)           179.9962         estimate D2E/DX2                !
 ! D23   D(1,5,11,12)           64.0884         estimate D2E/DX2                !
 ! D24   D(1,5,11,13)          -61.3939         estimate D2E/DX2                !
 ! D25   D(1,5,11,21)         -178.6539         estimate D2E/DX2                !
 ! D26   D(4,5,11,12)         -115.8991         estimate D2E/DX2                !
 ! D27   D(4,5,11,13)          118.6186         estimate D2E/DX2                !
 ! D28   D(4,5,11,21)            1.3586         estimate D2E/DX2                !
 ! D29   D(3,8,9,15)            55.2441         estimate D2E/DX2                !
 ! D30   D(3,8,9,16)           174.5032         estimate D2E/DX2                !
 ! D31   D(3,8,9,17)           -66.0566         estimate D2E/DX2                !
 ! D32   D(10,8,9,15)         -179.4511         estimate D2E/DX2                !
 ! D33   D(10,8,9,16)          -60.192          estimate D2E/DX2                !
 ! D34   D(10,8,9,17)           59.2483         estimate D2E/DX2                !
 ! D35   D(14,8,9,15)          -57.9531         estimate D2E/DX2                !
 ! D36   D(14,8,9,16)           61.306          estimate D2E/DX2                !
 ! D37   D(14,8,9,17)         -179.2537         estimate D2E/DX2                !
 ! D38   D(3,8,10,18)          -55.2312         estimate D2E/DX2                !
 ! D39   D(3,8,10,19)         -174.4876         estimate D2E/DX2                !
 ! D40   D(3,8,10,20)           66.0696         estimate D2E/DX2                !
 ! D41   D(9,8,10,18)          179.4626         estimate D2E/DX2                !
 ! D42   D(9,8,10,19)           60.2061         estimate D2E/DX2                !
 ! D43   D(9,8,10,20)          -59.2366         estimate D2E/DX2                !
 ! D44   D(14,8,10,18)          57.9641         estimate D2E/DX2                !
 ! D45   D(14,8,10,19)         -61.2923         estimate D2E/DX2                !
 ! D46   D(14,8,10,20)         179.2649         estimate D2E/DX2                !
 ! D47   D(5,11,12,22)          57.0213         estimate D2E/DX2                !
 ! D48   D(5,11,12,23)         176.7738         estimate D2E/DX2                !
 ! D49   D(5,11,12,24)         -63.7252         estimate D2E/DX2                !
 ! D50   D(13,11,12,22)       -178.9107         estimate D2E/DX2                !
 ! D51   D(13,11,12,23)        -59.1581         estimate D2E/DX2                !
 ! D52   D(13,11,12,24)         60.3428         estimate D2E/DX2                !
 ! D53   D(21,11,12,22)        -57.2696         estimate D2E/DX2                !
 ! D54   D(21,11,12,23)         62.483          estimate D2E/DX2                !
 ! D55   D(21,11,12,24)       -178.0161         estimate D2E/DX2                !
 ! D56   D(5,11,13,25)         -57.0011         estimate D2E/DX2                !
 ! D57   D(5,11,13,26)        -176.7519         estimate D2E/DX2                !
 ! D58   D(5,11,13,27)          63.7459         estimate D2E/DX2                !
 ! D59   D(12,11,13,25)        178.9318         estimate D2E/DX2                !
 ! D60   D(12,11,13,26)         59.181          estimate D2E/DX2                !
 ! D61   D(12,11,13,27)        -60.3212         estimate D2E/DX2                !
 ! D62   D(21,11,13,25)         57.2914         estimate D2E/DX2                !
 ! D63   D(21,11,13,26)        -62.4594         estimate D2E/DX2                !
 ! D64   D(21,11,13,27)        178.0384         estimate D2E/DX2                !
 --------------------------------------------------------------------------------
 Trust Radius=3.00D-01 FncErr=1.00D-07 GrdErr=1.00D-06
 Number of steps in this run=    150 maximum allowed number of steps=    162.
 GradGradGradGradGradGradGradGradGradGradGradGradGradGradGradGradGradGrad

 Leave Link  103 at Sun Jun 20 23:32:18 2021, MaxMem=  3355443200 cpu:         0.1
 (Enter /usr/local/gqt/g09/l202.exe)
                          Input orientation:                          
 ---------------------------------------------------------------------
 Center     Atomic      Atomic             Coordinates (Angstroms)
 Number     Number       Type             X           Y           Z
 ---------------------------------------------------------------------
      1          6           0        0.651138    1.307954    0.000109
      2          6           0       -0.865994    1.066898    0.000034
      3          7           0       -0.981110   -0.305331   -0.000047
      4          6           0        0.229816   -0.933679   -0.000029
      5          7           0        1.183606    0.042253   -0.000035
      6          8           0       -1.719616    1.906179   -0.000024
      7          8           0        1.209079    2.367437    0.000294
      8          6           0       -2.251959   -1.047203   -0.000074
      9          6           0       -3.041922   -0.768970   -1.267474
     10          6           0       -3.041841   -0.769082    1.267415
     11          6           0        2.628922   -0.229378    0.000061
     12          6           0        3.263248    0.283689    1.279715
     13          6           0        3.274509    0.342500   -1.248644
     14          1           0       -1.936023   -2.087398   -0.000123
     15          1           0       -2.447920   -0.988442   -2.151925
     16          1           0       -3.926408   -1.401484   -1.286802
     17          1           0       -3.366086    0.267932   -1.312066
     18          1           0       -2.447685   -0.988450    2.151791
     19          1           0       -3.926196   -1.401775    1.286873
     20          1           0       -3.366188    0.267762    1.312047
     21          1           0        2.701309   -1.314671   -0.024849
     22          1           0        2.792573   -0.157863    2.155338
     23          1           0        4.319885    0.026521    1.293158
     24          1           0        3.172229    1.365949    1.344619
     25          1           0        2.811509   -0.057469   -2.148020
     26          1           0        4.331184    0.085647   -1.264775
     27          1           0        3.184174    1.426653   -1.263763
 ---------------------------------------------------------------------
                    Distance matrix (angstroms):
                    1          2          3          4          5
     1  C    0.000000
     2  C    1.536163   0.000000
     3  N    2.294978   1.377049   0.000000
     4  C    2.280884   2.281032   1.364244   0.000000
     5  N    1.373143   2.291453   2.192444   1.364609   0.000000
     6  O    2.445066   1.197106   2.331559   3.444572   3.450061
     7  O    1.197415   2.448945   3.455520   3.443301   2.325324
     8  C    3.738280   2.527909   1.471540   2.484370   3.604167
     9  C    4.422564   3.116352   2.463388   3.512523   4.485485
    10  C    4.422470   3.116310   2.463359   3.512442   4.485432
    11  C    2.504999   3.727569   3.610831   2.500350   1.470620
    12  C    3.083768   4.393363   4.472058   3.510190   2.453764
    13  C    3.061627   4.384941   4.482072   3.529565   2.453782
    14  H    4.268702   3.330848   2.021787   2.453961   3.777234
    15  H    4.416882   3.370139   2.692350   3.435684   4.345221
    16  H    5.472762   4.137027   3.395890   4.375937   5.463734
    17  H    4.352188   2.934351   2.781750   4.011960   4.740470
    18  H    4.416550   3.369905   2.692193   3.435454   4.344995
    19  H    5.472694   4.137045   3.395863   4.375805   5.463646
    20  H    4.352251   2.934445   2.781838   4.012013   4.740574
    21  H    3.328962   4.289305   3.818323   2.500810   2.035996
    22  H    3.373333   4.419331   4.348346   3.437328   2.697120
    23  H    4.095577   5.444988   5.466540   4.395791   3.392469
    24  H    2.857791   4.266683   4.674562   3.969151   2.741329
    25  H    3.338568   4.404811   4.365682   3.470842   2.697007
    26  H    4.078812   5.438130   5.474748   4.411330   3.392447
    27  H    2.833326   4.257989   4.684692   3.987032   2.741504
                    6          7          8          9         10
     6  O    0.000000
     7  O    2.964796   0.000000
     8  C    3.000976   4.861949   0.000000
     9  C    3.242120   5.432798   1.519131   0.000000
    10  C    3.242176   5.432648   1.519142   2.534889   0.000000
    11  C    4.844624   2.959629   4.948923   5.835776   5.835668
    12  C    5.394361   3.193514   5.816067   6.881237   6.392388
    13  C    5.380095   3.150590   5.833699   6.413503   6.889299
    14  H    3.999436   5.453185   1.087116   2.137158   2.137158
    15  H    3.679665   5.409955   2.161554   1.087778   3.477463
    16  H    4.179278   6.498816   2.141253   1.087549   2.776043
    17  H    2.667615   5.202148   2.166145   1.087307   2.798974
    18  H    3.679575   5.409514   2.161547   3.477451   1.087780
    19  H    4.179433   6.498715   2.141267   2.776161   1.087549
    20  H    2.667797   5.202153   2.166172   2.798909   1.087308
    21  H    5.469833   3.973072   4.960546   5.901407   5.911970
    22  H    5.409779   3.678153   5.557340   6.791938   5.933160
    23  H    6.456083   4.102256   6.783396   7.834912   7.404638
    24  H    5.101967   2.581501   6.087144   7.070826   6.571072
    25  H    5.385248   3.614305   5.588555   5.961899   6.814198
    26  H    6.444076   4.068723   6.798573   7.422471   7.842452
    27  H    5.086663   2.526641   6.104787   6.601897   7.070458
                   11         12         13         14         15
    11  C    0.000000
    12  C    1.517604   0.000000
    13  C    1.517593   2.529067   0.000000
    14  H    4.928586   5.855976   5.883269   0.000000
    15  H    5.566107   6.783208   5.944200   2.469817   0.000000
    16  H    6.782492   7.817798   7.409193   2.467317   1.762092
    17  H    6.157038   7.117980   6.641316   3.051861   1.768295
    18  H    5.565795   5.915539   6.788069   2.469862   4.303716
    19  H    6.782328   7.384371   7.830804   2.467230   3.765830
    20  H    6.157093   6.629534   7.117695   3.051875   3.797416
    21  H    1.087990   2.138321   2.138328   4.701337   5.580810
    22  H    2.162664   1.087759   3.474150   5.543351   6.834116
    23  H    2.144048   1.087566   2.766480   6.728864   7.661719
    24  H    2.155942   1.088018   2.789788   6.310957   7.025315
    25  H    2.162670   3.474164   1.087760   5.592238   5.341190
    26  H    2.144003   2.766611   1.087564   6.752729   6.920762
    27  H    2.155921   2.789605   1.088015   6.337331   6.192092
                   16         17         18         19         20
    16  H    0.000000
    17  H    1.761121   0.000000
    18  H    3.765786   3.797402   0.000000
    19  H    2.573675   3.139447   1.762077   0.000000
    20  H    3.139147   2.624113   1.768300   1.761135   0.000000
    21  H    6.747347   6.401159   5.599672   6.756628   6.411389
    22  H    7.651119   7.080485   5.305675   6.887917   6.230781
    23  H    8.757668   8.119090   6.896914   8.368866   7.689881
    24  H    8.060627   7.142351   6.146394   7.619138   6.630081
    25  H    6.924420   6.242386   6.856691   7.681296   7.088143
    26  H    8.390463   7.699573   7.666790   8.769701   8.119280
    27  H    7.652403   6.652133   7.015452   8.066171   7.133377
                   21         22         23         24         25
    21  H    0.000000
    22  H    2.469767   0.000000
    23  H    2.481074   1.763529   0.000000
    24  H    3.046790   1.767316   1.764604   0.000000
    25  H    2.469930   4.304570   3.758186   3.788768   0.000000
    26  H    2.480887   3.758164   2.558642   3.129103   1.763524
    27  H    3.046789   3.788706   3.128586   2.609115   1.767317
                   26         27
    26  H    0.000000
    27  H    1.764633   0.000000
 Stoichiometry    C9H14N2O2
 Framework group  C1[X(C9H14N2O2)]
 Deg. of freedom    75
 Full point group                 C1      NOp   1
 Largest Abelian subgroup         C1      NOp   1
 Largest concise Abelian subgroup C1      NOp   1
                         Standard orientation:                         
 ---------------------------------------------------------------------
 Center     Atomic      Atomic             Coordinates (Angstroms)
 Number     Number       Type             X           Y           Z
 ---------------------------------------------------------------------
      1          6           0       -0.780834    0.955361   -0.015021
      2          6           0        0.755196    0.975443   -0.017528
      3          7           0        1.101709   -0.357044    0.008391
      4          6           0        0.015101   -1.181744    0.026214
      5          7           0       -1.090589   -0.382115    0.011992
      6          8           0        1.453865    1.947307   -0.037668
      7          8           0       -1.510618    1.904517   -0.032924
      8          6           0        2.480096   -0.872224    0.016637
      9          6           0        3.213126   -0.438922    1.274681
     10          6           0        3.209460   -0.489126   -1.259708
     11          6           0       -2.468768   -0.895145    0.023994
     12          6           0       -3.182839   -0.522610   -1.262257
     13          6           0       -3.200330   -0.416626    1.264528
     14          1           0        2.345425   -1.950751    0.038190
     15          1           0        2.666289   -0.738544    2.166004
     16          1           0        4.192218   -0.911571    1.301960
     17          1           0        3.356528    0.638640    1.297785
     18          1           0        2.659939   -0.823617   -2.136866
     19          1           0        4.188399   -0.962740   -1.271203
     20          1           0        3.352926    0.586647   -1.325810
     21          1           0       -2.355734   -1.976264    0.070111
     22          1           0       -2.645252   -0.895049   -2.131457
     23          1           0       -4.180463   -0.955662   -1.265727
     24          1           0       -3.277054    0.557893   -1.348391
     25          1           0       -2.674845   -0.714329    2.169216
     26          1           0       -4.198003   -0.848789    1.290622
     27          1           0       -3.295427    0.667208    1.258369
 ---------------------------------------------------------------------
 Rotational constants (GHZ):      1.6048443      0.4949594      0.4521335
 Leave Link  202 at Sun Jun 20 23:32:18 2021, MaxMem=  3355443200 cpu:         0.0
 (Enter /usr/local/gqt/g09/l301.exe)
 Standard basis: 6-311+G(d,p) (5D, 7F)
 Ernie: Thresh=  0.10000D-02 Tol=  0.10000D-05 Strict=F.
 There are   383 symmetry adapted cartesian basis functions of A   symmetry.
 There are   370 symmetry adapted basis functions of A   symmetry.
   370 basis functions,   580 primitive gaussians,   383 cartesian basis functions
    49 alpha electrons       49 beta electrons
       nuclear repulsion energy       835.3968287391 Hartrees.
 IExCor= 5547 DFT=T Ex+Corr=N12SX ExCW=0 ScaHFX=  0.250000
 ScaDFX=  1.000000  1.000000  1.000000  1.000000 ScalE2=  1.000000  1.000000
 IRadAn=      0 IRanWt=     -1 IRanGd=            0 ICorTp=0 IEmpDi=  4
  HFx wShort=  0.110000 wLong=  0.000000 cFull=  0.000000 cShort=  1.000000 cLong=  0.000000
  DFx wShort=  0.110000 wLong=  0.000000 cFull=  0.000000 cShort=  1.000000 cLong=  0.000000
 NAtoms=   27 NActive=   27 NUniq=   27 SFac= 1.00D+00 NAtFMM=   60 NAOKFM=F Big=F
 Integral buffers will be    131072 words long.
 Raffenetti 2 integral format.
 Two-electron integral symmetry is turned on.
 ------------------------------------------------------------------------------
 Polarizable Continuum Model (PCM)
 =================================
 Model                : PCM (using non-symmetric T matrix).
 Atomic radii         : UFF (Universal Force Field).
 Polarization charges : Total charges.
 Charge compensation  : None.
 Solution method      : On-the-fly selection.
 Cavity type          : Scaled VdW (van der Waals Surface) (Alpha=1.100).
 Cavity algorithm     : GePol (No added spheres)
                        Default sphere list used, NSphG=   27.
                        Lebedev-Laikov grids with approx.  5.0 points / Ang**2.
                        Smoothing algorithm: Karplus/York (Gamma=1.0000).
                        Polarization charges: spherical gaussians, with
                                              point-specific exponents (IZeta= 3).
                        Self-potential: point-specific (ISelfS= 7).
                        Self-field    : sphere-specific E.n sum rule (ISelfD= 2).
 1st derivatives      : Analytical E(r).r(x)/FMM algorithm (CHGder, D1EAlg=3).
                        Cavity 1st derivative terms included.
 Solvent              : Water, Eps=  78.355300 Eps(inf)=   1.777849
 ------------------------------------------------------------------------------
 GePol: Number of generator spheres                  =      27
 GePol: Total number of spheres                      =      27
 GePol: Number of exposed spheres                    =      27 (100.00%)
 GePol: Number of points                             =    2013
 GePol: Average weight of points                     =       0.13
 GePol: Minimum weight of points                     =   0.66D-09
 GePol: Maximum weight of points                     =    0.20577
 GePol: Number of points with low weight             =     122
 GePol: Fraction of low-weight points (<1% of avg)   =       6.06%
 GePol: Cavity surface area                          =    263.448 Ang**2
 GePol: Cavity volume                                =    272.816 Ang**3
 Leave Link  301 at Sun Jun 20 23:32:18 2021, MaxMem=  3355443200 cpu:         0.7
 (Enter /usr/local/gqt/g09/l302.exe)
 NPDir=0 NMtPBC=     1 NCelOv=     1 NCel=       1 NClECP=     1 NCelD=      1
         NCelK=      1 NCelE2=     1 NClLst=     1 CellRange=     0.0.
 One-electron integrals computed using PRISM.
 NBasis=   370 RedAO= T EigKep=  1.07D-05  NBF=   370
 NBsUse=   370 1.00D-06 EigRej= -1.00D+00 NBFU=   370
 Precomputing XC quadrature grid using
 IXCGrd= 4 IRadAn=           0 IRanWt=          -1 IRanGd=           0 AccXCQ= 0.00D+00.
 Generated NRdTot=       0 NPtTot=           0 NUsed=           0 NTot=          32
 NSgBfM=   382   382   383   383   383 MxSgAt=    27 MxSgA2=    27.
 Leave Link  302 at Sun Jun 20 23:32:18 2021, MaxMem=  3355443200 cpu:         5.9
 (Enter /usr/local/gqt/g09/l303.exe)
 DipDrv:  MaxL=1.
 Leave Link  303 at Sun Jun 20 23:32:18 2021, MaxMem=  3355443200 cpu:         0.8
 (Enter /usr/local/gqt/g09/l401.exe)
 ExpMin= 4.38D-02 ExpMax= 8.59D+03 ExpMxC= 1.30D+03 IAcc=2 IRadAn=         4 AccDes= 0.00D+00
 Harris functional with IExCor= 5547 and IRadAn=       4 diagonalized for initial guess.
 HarFok:  IExCor= 5547 AccDes= 0.00D+00 IRadAn=         4 IDoV= 1 UseB2=F ITyADJ=14
 ICtDFT=  3500011 ScaDFX=  1.000000  1.000000  1.000000  1.000000
 FoFCou: FMM=F IPFlag=           0 FMFlag=      100000 FMFlg1=           0
         NFxFlg=           0 DoJE=T BraDBF=F KetDBF=T FulRan=T
         wScrn=  0.000000 ICntrl=     500 IOpCl=  0 I1Cent=   200000004 NGrid=           0
         NMat0=    1 NMatS0=      1 NMatT0=    0 NMatD0=    1 NMtDS0=    0 NMtDT0=    0
 Petite list used in FoFCou.
 Harris En= -592.678094274567    
 JPrj=0 DoOrth=F DoCkMO=F.
 Leave Link  401 at Sun Jun 20 23:32:19 2021, MaxMem=  3355443200 cpu:        19.3
 (Enter /usr/local/gqt/g09/l502.exe)
 Closed shell SCF:
 Using DIIS extrapolation, IDIIS=  1040.
 Integral symmetry usage will be decided dynamically.
 IVT=      467601 IEndB=      467601 NGot=  3355443200 MDV=  3355139312
 LenX=  3355139312 LenY=  3354992182
 Requested convergence on RMS density matrix=1.00D-08 within 128 cycles.
 Requested convergence on MAX density matrix=1.00D-06.
 Requested convergence on             energy=1.00D-06.
 No special actions if energy rises.
 Fock matrices will be formed incrementally for  20 cycles.

 Cycle   1  Pass 1  IDiag  1:
 FoFJK:  IHMeth= 1 ICntrl=       0 DoSepK=T KAlg= 0 I1Cent=   0 FoldK=F
 IRaf=         1 NMat=   1 IRICut=       1 DoRegI=T DoRafI=F ISym2E= 0.
 FoFCou: FMM=F IPFlag=           0 FMFlag=      100000 FMFlg1=           0
         NFxFlg=           0 DoJE=T BraDBF=F KetDBF=F FulRan=T
         wScrn=  0.000000 ICntrl=     500 IOpCl=  0 I1Cent=           0 NGrid=           0
         NMat0=    1 NMatS0=      1 NMatT0=    0 NMatD0=    1 NMtDS0=    0 NMtDT0=    0
 Symmetry not used in FoFCou.
 Inv3:  Mode=1 IEnd=    12156507.
 Iteration    1 A*A^-1 deviation from unit magnitude is 7.11D-15 for   2006.
 Iteration    1 A*A^-1 deviation from orthogonality  is 3.21D-15 for   2005   1911.
 Iteration    1 A^-1*A deviation from unit magnitude is 7.33D-15 for   2006.
 Iteration    1 A^-1*A deviation from orthogonality  is 2.87D-09 for   1519   1479.
 Iteration    2 A*A^-1 deviation from unit magnitude is 7.33D-15 for    591.
 Iteration    2 A*A^-1 deviation from orthogonality  is 5.36D-15 for   1594    381.
 Iteration    2 A^-1*A deviation from unit magnitude is 1.55D-15 for    190.
 Iteration    2 A^-1*A deviation from orthogonality  is 8.35D-16 for   2007   1078.
 E= -610.945074726808    
 DIIS: error= 7.84D-02 at cycle   1 NSaved=   1.
 NSaved= 1 IEnMin= 1 EnMin= -610.945074726808     IErMin= 1 ErrMin= 7.84D-02
 ErrMax= 7.84D-02  0.00D+00 EMaxC= 1.00D-01 BMatC= 1.52D+00 BMatP= 1.52D+00
 IDIUse=3 WtCom= 2.16D-01 WtEn= 7.84D-01
 Coeff-Com:  0.100D+01
 Coeff-En:   0.100D+01
 Coeff:      0.100D+01
 Gap=     0.113 Goal=   None    Shift=    0.000
 GapD=    0.113 DampG=1.000 DampE=0.500 DampFc=0.5000 IDamp=-1.
 Damping current iteration by 5.00D-01
 RMSDP=8.62D-03 MaxDP=9.57D-01              OVMax= 1.32D-01

 Cycle   2  Pass 1  IDiag  1:
 RMSU=  3.38D-03    CP:  8.90D-01
 E= -611.055584993227     Delta-E=       -0.110510266419 Rises=F Damp=T
 DIIS: error= 3.47D-02 at cycle   2 NSaved=   2.
 NSaved= 2 IEnMin= 2 EnMin= -611.055584993227     IErMin= 2 ErrMin= 3.47D-02
 ErrMax= 3.47D-02  0.00D+00 EMaxC= 1.00D-01 BMatC= 3.02D-01 BMatP= 1.52D+00
 IDIUse=3 WtCom= 6.53D-01 WtEn= 3.47D-01
 Coeff-Com: -0.550D+00 0.155D+01
 Coeff-En:   0.000D+00 0.100D+01
 Coeff:     -0.359D+00 0.136D+01
 Gap=     0.136 Goal=   None    Shift=    0.000
 RMSDP=3.65D-03 MaxDP=3.11D-01 DE=-1.11D-01 OVMax= 1.20D-01

 Cycle   3  Pass 1  IDiag  1:
 RMSU=  2.30D-03    CP:  7.74D-01  1.10D+00
 E= -611.087038247002     Delta-E=       -0.031453253774 Rises=F Damp=F
 DIIS: error= 2.53D-02 at cycle   3 NSaved=   3.
 NSaved= 3 IEnMin= 3 EnMin= -611.087038247002     IErMin= 3 ErrMin= 2.53D-02
 ErrMax= 2.53D-02  0.00D+00 EMaxC= 1.00D-01 BMatC= 1.19D-01 BMatP= 3.02D-01
 IDIUse=3 WtCom= 7.47D-01 WtEn= 2.53D-01
 Coeff-Com: -0.355D+00 0.824D+00 0.531D+00
 Coeff-En:   0.000D+00 0.332D+00 0.668D+00
 Coeff:     -0.265D+00 0.700D+00 0.566D+00
 Gap=     0.125 Goal=   None    Shift=    0.000
 RMSDP=1.98D-03 MaxDP=8.72D-02 DE=-3.15D-02 OVMax= 8.62D-02

 Cycle   4  Pass 1  IDiag  1:
 RMSU=  9.81D-04    CP:  7.96D-01  1.36D+00  4.10D-01
 E= -611.160402771808     Delta-E=       -0.073364524806 Rises=F Damp=F
 DIIS: error= 1.72D-02 at cycle   4 NSaved=   4.
 NSaved= 4 IEnMin= 4 EnMin= -611.160402771808     IErMin= 4 ErrMin= 1.72D-02
 ErrMax= 1.72D-02  0.00D+00 EMaxC= 1.00D-01 BMatC= 3.69D-02 BMatP= 1.19D-01
 IDIUse=3 WtCom= 8.28D-01 WtEn= 1.72D-01
 Coeff-Com: -0.188D+00 0.423D+00 0.405D+00 0.361D+00
 Coeff-En:   0.000D+00 0.000D+00 0.230D+00 0.770D+00
 Coeff:     -0.156D+00 0.350D+00 0.374D+00 0.431D+00
 Gap=     0.121 Goal=   None    Shift=    0.000
 RMSDP=1.10D-03 MaxDP=5.39D-02 DE=-7.34D-02 OVMax= 4.09D-02

 Cycle   5  Pass 1  IDiag  1:
 RMSU=  2.88D-04    CP:  7.74D-01  1.41D+00  6.59D-01  2.94D-01
 E= -611.185162942776     Delta-E=       -0.024760170969 Rises=F Damp=F
 DIIS: error= 4.10D-03 at cycle   5 NSaved=   5.
 NSaved= 5 IEnMin= 5 EnMin= -611.185162942776     IErMin= 5 ErrMin= 4.10D-03
 ErrMax= 4.10D-03  0.00D+00 EMaxC= 1.00D-01 BMatC= 2.59D-03 BMatP= 3.69D-02
 IDIUse=3 WtCom= 9.59D-01 WtEn= 4.10D-02
 Coeff-Com: -0.662D-01 0.148D+00 0.181D+00 0.280D+00 0.457D+00
 Coeff-En:   0.000D+00 0.000D+00 0.000D+00 0.591D-01 0.941D+00
 Coeff:     -0.635D-01 0.142D+00 0.174D+00 0.271D+00 0.477D+00
 Gap=     0.120 Goal=   None    Shift=    0.000
 RMSDP=2.72D-04 MaxDP=1.21D-02 DE=-2.48D-02 OVMax= 1.07D-02

 Cycle   6  Pass 1  IDiag  1:
 RMSU=  9.13D-05    CP:  7.80D-01  1.41D+00  6.10D-01  4.33D-01  6.08D-01
 E= -611.187008690910     Delta-E=       -0.001845748134 Rises=F Damp=F
 DIIS: error= 6.14D-04 at cycle   6 NSaved=   6.
 NSaved= 6 IEnMin= 6 EnMin= -611.187008690910     IErMin= 6 ErrMin= 6.14D-04
 ErrMax= 6.14D-04  0.00D+00 EMaxC= 1.00D-01 BMatC= 6.63D-05 BMatP= 2.59D-03
 IDIUse=3 WtCom= 9.94D-01 WtEn= 6.14D-03
 Coeff-Com: -0.146D-02 0.288D-02 0.215D-01 0.703D-01 0.242D+00 0.665D+00
 Coeff-En:   0.000D+00 0.000D+00 0.000D+00 0.000D+00 0.000D+00 0.100D+01
 Coeff:     -0.145D-02 0.286D-02 0.214D-01 0.699D-01 0.240D+00 0.667D+00
 Gap=     0.121 Goal=   None    Shift=    0.000
 RMSDP=5.29D-05 MaxDP=3.49D-03 DE=-1.85D-03 OVMax= 1.68D-03

 Cycle   7  Pass 1  IDiag  1:
 RMSU=  2.17D-05    CP:  7.79D-01  1.40D+00  6.19D-01  4.35D-01  6.68D-01
                    CP:  7.65D-01
 E= -611.187057950596     Delta-E=       -0.000049259686 Rises=F Damp=F
 DIIS: error= 1.20D-04 at cycle   7 NSaved=   7.
 NSaved= 7 IEnMin= 7 EnMin= -611.187057950596     IErMin= 7 ErrMin= 1.20D-04
 ErrMax= 1.20D-04  0.00D+00 EMaxC= 1.00D-01 BMatC= 3.68D-06 BMatP= 6.63D-05
 IDIUse=3 WtCom= 9.99D-01 WtEn= 1.20D-03
 Coeff-Com:  0.354D-02-0.780D-02-0.944D-03 0.158D-01 0.876D-01 0.327D+00
 Coeff-Com:  0.575D+00
 Coeff-En:   0.000D+00 0.000D+00 0.000D+00 0.000D+00 0.000D+00 0.000D+00
 Coeff-En:   0.100D+01
 Coeff:      0.354D-02-0.779D-02-0.943D-03 0.157D-01 0.875D-01 0.326D+00
 Coeff:      0.576D+00
 Gap=     0.120 Goal=   None    Shift=    0.000
 RMSDP=1.37D-05 MaxDP=1.10D-03 DE=-4.93D-05 OVMax= 3.04D-04

 Cycle   8  Pass 1  IDiag  1:
 RMSU=  7.46D-06    CP:  7.79D-01  1.40D+00  6.20D-01  4.34D-01  6.86D-01
                    CP:  7.77D-01  6.64D-01
 E= -611.187061396761     Delta-E=       -0.000003446165 Rises=F Damp=F
 DIIS: error= 1.58D-05 at cycle   8 NSaved=   8.
 NSaved= 8 IEnMin= 8 EnMin= -611.187061396761     IErMin= 8 ErrMin= 1.58D-05
 ErrMax= 1.58D-05  0.00D+00 EMaxC= 1.00D-01 BMatC= 8.51D-08 BMatP= 3.68D-06
 IDIUse=1 WtCom= 1.00D+00 WtEn= 0.00D+00
 Coeff-Com:  0.746D-03-0.161D-02-0.848D-03 0.826D-03 0.105D-01 0.546D-01
 Coeff-Com:  0.187D+00 0.749D+00
 Coeff:      0.746D-03-0.161D-02-0.848D-03 0.826D-03 0.105D-01 0.546D-01
 Coeff:      0.187D+00 0.749D+00
 Gap=     0.120 Goal=   None    Shift=    0.000
 RMSDP=2.47D-06 MaxDP=1.74D-04 DE=-3.45D-06 OVMax= 5.79D-05

 Cycle   9  Pass 1  IDiag  1:
 RMSU=  1.15D-06    CP:  7.79D-01  1.40D+00  6.20D-01  4.34D-01  6.84D-01
                    CP:  7.70D-01  6.97D-01  8.32D-01
 E= -611.187061474173     Delta-E=       -0.000000077412 Rises=F Damp=F
 DIIS: error= 6.32D-06 at cycle   9 NSaved=   9.
 NSaved= 9 IEnMin= 9 EnMin= -611.187061474173     IErMin= 9 ErrMin= 6.32D-06
 ErrMax= 6.32D-06  0.00D+00 EMaxC= 1.00D-01 BMatC= 1.21D-08 BMatP= 8.51D-08
 IDIUse=1 WtCom= 1.00D+00 WtEn= 0.00D+00
 Coeff-Com:  0.905D-04-0.181D-03-0.230D-03-0.455D-03-0.833D-04 0.836D-02
 Coeff-Com:  0.606D-01 0.370D+00 0.562D+00
 Coeff:      0.905D-04-0.181D-03-0.230D-03-0.455D-03-0.833D-04 0.836D-02
 Coeff:      0.606D-01 0.370D+00 0.562D+00
 Gap=     0.120 Goal=   None    Shift=    0.000
 RMSDP=7.21D-07 MaxDP=4.55D-05 DE=-7.74D-08 OVMax= 2.11D-05

 Cycle  10  Pass 1  IDiag  1:
 RMSU=  3.37D-07    CP:  7.79D-01  1.40D+00  6.20D-01  4.34D-01  6.84D-01
                    CP:  7.72D-01  6.91D-01  8.33D-01  8.55D-01
 E= -611.187061484625     Delta-E=       -0.000000010451 Rises=F Damp=F
 DIIS: error= 1.18D-06 at cycle  10 NSaved=  10.
 NSaved=10 IEnMin=10 EnMin= -611.187061484625     IErMin=10 ErrMin= 1.18D-06
 ErrMax= 1.18D-06  0.00D+00 EMaxC= 1.00D-01 BMatC= 6.65D-10 BMatP= 1.21D-08
 IDIUse=1 WtCom= 1.00D+00 WtEn= 0.00D+00
 Coeff-Com: -0.139D-04 0.350D-04-0.450D-04-0.289D-03-0.866D-03 0.107D-04
 Coeff-Com:  0.119D-01 0.101D+00 0.235D+00 0.653D+00
 Coeff:     -0.139D-04 0.350D-04-0.450D-04-0.289D-03-0.866D-03 0.107D-04
 Coeff:      0.119D-01 0.101D+00 0.235D+00 0.653D+00
 Gap=     0.120 Goal=   None    Shift=    0.000
 RMSDP=1.43D-07 MaxDP=1.14D-05 DE=-1.05D-08 OVMax= 1.13D-05

 Cycle  11  Pass 1  IDiag  1:
 RMSU=  1.16D-07    CP:  7.79D-01  1.40D+00  6.20D-01  4.34D-01  6.84D-01
                    CP:  7.72D-01  6.93D-01  8.35D-01  8.66D-01  8.24D-01
 E= -611.187061484991     Delta-E=       -0.000000000366 Rises=F Damp=F
 DIIS: error= 8.47D-07 at cycle  11 NSaved=  11.
 NSaved=11 IEnMin=11 EnMin= -611.187061484991     IErMin=11 ErrMin= 8.47D-07
 ErrMax= 8.47D-07  0.00D+00 EMaxC= 1.00D-01 BMatC= 2.11D-10 BMatP= 6.65D-10
 IDIUse=1 WtCom= 1.00D+00 WtEn= 0.00D+00
 Coeff-Com: -0.137D-04 0.311D-04-0.130D-04-0.145D-03-0.533D-03-0.562D-03
 Coeff-Com:  0.216D-02 0.318D-01 0.980D-01 0.411D+00 0.459D+00
 Coeff:     -0.137D-04 0.311D-04-0.130D-04-0.145D-03-0.533D-03-0.562D-03
 Coeff:      0.216D-02 0.318D-01 0.980D-01 0.411D+00 0.459D+00
 Gap=     0.120 Goal=   None    Shift=    0.000
 RMSDP=6.10D-08 MaxDP=4.66D-06 DE=-3.66D-10 OVMax= 5.12D-06

 Cycle  12  Pass 1  IDiag  1:
 RMSU=  3.97D-08    CP:  7.79D-01  1.40D+00  6.20D-01  4.34D-01  6.84D-01
                    CP:  7.72D-01  6.93D-01  8.36D-01  8.65D-01  8.83D-01
                    CP:  7.49D-01
 E= -611.187061485201     Delta-E=       -0.000000000210 Rises=F Damp=F
 DIIS: error= 1.24D-07 at cycle  12 NSaved=  12.
 NSaved=12 IEnMin=12 EnMin= -611.187061485201     IErMin=12 ErrMin= 1.24D-07
 ErrMax= 1.24D-07  0.00D+00 EMaxC= 1.00D-01 BMatC= 6.55D-12 BMatP= 2.11D-10
 IDIUse=1 WtCom= 1.00D+00 WtEn= 0.00D+00
 Coeff-Com: -0.215D-05 0.415D-05 0.931D-06-0.105D-04-0.758D-04-0.163D-03
 Coeff-Com: -0.117D-02-0.311D-02 0.694D-03 0.492D-01 0.154D+00 0.800D+00
 Coeff:     -0.215D-05 0.415D-05 0.931D-06-0.105D-04-0.758D-04-0.163D-03
 Coeff:     -0.117D-02-0.311D-02 0.694D-03 0.492D-01 0.154D+00 0.800D+00
 Gap=     0.120 Goal=   None    Shift=    0.000
 RMSDP=2.20D-08 MaxDP=1.67D-06 DE=-2.10D-10 OVMax= 8.47D-07

 Cycle  13  Pass 1  IDiag  1:
 RMSU=  1.42D-08    CP:  7.79D-01  1.40D+00  6.20D-01  4.34D-01  6.84D-01
                    CP:  7.72D-01  6.93D-01  8.36D-01  8.70D-01  8.96D-01
                    CP:  7.69D-01  8.81D-01
 E= -611.187061485241     Delta-E=       -0.000000000040 Rises=F Damp=F
 DIIS: error= 8.99D-08 at cycle  13 NSaved=  13.
 NSaved=13 IEnMin=13 EnMin= -611.187061485241     IErMin=13 ErrMin= 8.99D-08
 ErrMax= 8.99D-08  0.00D+00 EMaxC= 1.00D-01 BMatC= 1.77D-12 BMatP= 6.55D-12
 IDIUse=1 WtCom= 1.00D+00 WtEn= 0.00D+00
 Coeff-Com: -0.725D-06 0.119D-05 0.102D-05-0.692D-06-0.280D-04-0.832D-04
 Coeff-Com: -0.860D-03-0.338D-02-0.382D-02 0.138D-01 0.789D-01 0.512D+00
 Coeff-Com:  0.404D+00
 Coeff:     -0.725D-06 0.119D-05 0.102D-05-0.692D-06-0.280D-04-0.832D-04
 Coeff:     -0.860D-03-0.338D-02-0.382D-02 0.138D-01 0.789D-01 0.512D+00
 Coeff:      0.404D+00
 Gap=     0.120 Goal=   None    Shift=    0.000
 RMSDP=9.80D-09 MaxDP=7.03D-07 DE=-3.96D-11 OVMax= 4.57D-07

 Error on total polarization charges =  0.01541
 SCF Done:  E(RN12SX) =  -611.187061485     A.U. after   13 cycles
            NFock= 13  Conv=0.98D-08     -V/T= 2.0053
 KE= 6.079586809822D+02 PE=-3.095151549369D+03 EE= 1.040608978162D+03
 Leave Link  502 at Sun Jun 20 23:34:18 2021, MaxMem=  3355443200 cpu:      1881.6
 (Enter /usr/local/gqt/g09/l601.exe)
 Copying SCF densities to generalized density rwf, IOpCl= 0 IROHF=0.

 **********************************************************************

            Population analysis using the SCF density.

 **********************************************************************

 Orbital symmetries:
       Occupied  (A) (A) (A) (A) (A) (A) (A) (A) (A) (A) (A) (A)
                 (A) (A) (A) (A) (A) (A) (A) (A) (A) (A) (A) (A)
                 (A) (A) (A) (A) (A) (A) (A) (A) (A) (A) (A) (A)
                 (A) (A) (A) (A) (A) (A) (A) (A) (A) (A) (A) (A)
                 (A)
       Virtual   (A) (A) (A) (A) (A) (A) (A) (A) (A) (A) (A) (A)
                 (A) (A) (A) (A) (A) (A) (A) (A) (A) (A) (A) (A)
                 (A) (A) (A) (A) (A) (A) (A) (A) (A) (A) (A) (A)
                 (A) (A) (A) (A) (A) (A) (A) (A) (A) (A) (A) (A)
                 (A) (A) (A) (A) (A) (A) (A) (A) (A) (A) (A) (A)
                 (A) (A) (A) (A) (A) (A) (A) (A) (A) (A) (A) (A)
                 (A) (A) (A) (A) (A) (A) (A) (A) (A) (A) (A) (A)
                 (A) (A) (A) (A) (A) (A) (A) (A) (A) (A) (A) (A)
                 (A) (A) (A) (A) (A) (A) (A) (A) (A) (A) (A) (A)
                 (A) (A) (A) (A) (A) (A) (A) (A) (A) (A) (A) (A)
                 (A) (A) (A) (A) (A) (A) (A) (A) (A) (A) (A) (A)
                 (A) (A) (A) (A) (A) (A) (A) (A) (A) (A) (A) (A)
                 (A) (A) (A) (A) (A) (A) (A) (A) (A) (A) (A) (A)
                 (A) (A) (A) (A) (A) (A) (A) (A) (A) (A) (A) (A)
                 (A) (A) (A) (A) (A) (A) (A) (A) (A) (A) (A) (A)
                 (A) (A) (A) (A) (A) (A) (A) (A) (A) (A) (A) (A)
                 (A) (A) (A) (A) (A) (A) (A) (A) (A) (A) (A) (A)
                 (A) (A) (A) (A) (A) (A) (A) (A) (A) (A) (A) (A)
                 (A) (A) (A) (A) (A) (A) (A) (A) (A) (A) (A) (A)
                 (A) (A) (A) (A) (A) (A) (A) (A) (A) (A) (A) (A)
                 (A) (A) (A) (A) (A) (A) (A) (A) (A) (A) (A) (A)
                 (A) (A) (A) (A) (A) (A) (A) (A) (A) (A) (A) (A)
                 (A) (A) (A) (A) (A) (A) (A) (A) (A) (A) (A) (A)
                 (A) (A) (A) (A) (A) (A) (A) (A) (A) (A) (A) (A)
                 (A) (A) (A) (A) (A) (A) (A) (A) (A) (A) (A) (A)
                 (A) (A) (A) (A) (A) (A) (A) (A) (A) (A) (A) (A)
                 (A) (A) (A) (A) (A) (A) (A) (A) (A)
 The electronic state is 1-A.
 Alpha  occ. eigenvalues --  -19.20185 -19.20121 -14.43330 -14.43310 -10.36971
 Alpha  occ. eigenvalues --  -10.36890 -10.30018 -10.27623 -10.27592 -10.21226
 Alpha  occ. eigenvalues --  -10.21226 -10.21175 -10.21147  -1.11385  -1.08058
 Alpha  occ. eigenvalues --   -1.03736  -0.94592  -0.82848  -0.78359  -0.72981
 Alpha  occ. eigenvalues --   -0.69879  -0.69829  -0.66638  -0.64268  -0.59571
 Alpha  occ. eigenvalues --   -0.56755  -0.51082  -0.50444  -0.49969  -0.47774
 Alpha  occ. eigenvalues --   -0.47645  -0.45419  -0.44861  -0.44439  -0.42769
 Alpha  occ. eigenvalues --   -0.41203  -0.39438  -0.38798  -0.38337  -0.37673
 Alpha  occ. eigenvalues --   -0.37086  -0.36187  -0.35762  -0.35656  -0.34407
 Alpha  occ. eigenvalues --   -0.33274  -0.29584  -0.28270  -0.24585
 Alpha virt. eigenvalues --   -0.12537  -0.00601  -0.00100   0.00300   0.01104
 Alpha virt. eigenvalues --    0.01664   0.02239   0.02497   0.02687   0.04194
 Alpha virt. eigenvalues --    0.04842   0.05266   0.05394   0.05487   0.05984
 Alpha virt. eigenvalues --    0.06056   0.06494   0.06959   0.08491   0.08594
 Alpha virt. eigenvalues --    0.08743   0.09834   0.09912   0.10065   0.10643
 Alpha virt. eigenvalues --    0.11016   0.11297   0.12006   0.13547   0.14303
 Alpha virt. eigenvalues --    0.14402   0.14698   0.14715   0.15091   0.15424
 Alpha virt. eigenvalues --    0.15901   0.16501   0.17538   0.18302   0.18774
 Alpha virt. eigenvalues --    0.18857   0.19023   0.19885   0.20089   0.20601
 Alpha virt. eigenvalues --    0.21336   0.22199   0.22712   0.23060   0.23523
 Alpha virt. eigenvalues --    0.23546   0.23733   0.24609   0.24994   0.25157
 Alpha virt. eigenvalues --    0.25308   0.25655   0.26106   0.26464   0.27260
 Alpha virt. eigenvalues --    0.27653   0.27977   0.29185   0.30107   0.30327
 Alpha virt. eigenvalues --    0.31352   0.31752   0.32060   0.32726   0.32846
 Alpha virt. eigenvalues --    0.34852   0.36533   0.36619   0.36915   0.39223
 Alpha virt. eigenvalues --    0.39426   0.39580   0.40697   0.41318   0.42311
 Alpha virt. eigenvalues --    0.42336   0.43222   0.46234   0.46912   0.47842
 Alpha virt. eigenvalues --    0.48106   0.49590   0.50353   0.51780   0.52900
 Alpha virt. eigenvalues --    0.53931   0.56147   0.57085   0.57819   0.58594
 Alpha virt. eigenvalues --    0.59512   0.60260   0.61758   0.62700   0.63623
 Alpha virt. eigenvalues --    0.64343   0.64687   0.65022   0.66392   0.66916
 Alpha virt. eigenvalues --    0.68681   0.69294   0.69793   0.69911   0.70532
 Alpha virt. eigenvalues --    0.71559   0.72601   0.73151   0.73549   0.74216
 Alpha virt. eigenvalues --    0.75172   0.75741   0.76806   0.77396   0.78003
 Alpha virt. eigenvalues --    0.82606   0.83197   0.83501   0.85951   0.86625
 Alpha virt. eigenvalues --    0.89844   0.91062   0.95938   0.96283   0.98056
 Alpha virt. eigenvalues --    0.98511   1.00235   1.01492   1.03937   1.04623
 Alpha virt. eigenvalues --    1.05399   1.09738   1.09951   1.12268   1.12798
 Alpha virt. eigenvalues --    1.14755   1.15051   1.17538   1.18549   1.19000
 Alpha virt. eigenvalues --    1.19911   1.22635   1.23557   1.26075   1.27846
 Alpha virt. eigenvalues --    1.28359   1.29795   1.30962   1.32723   1.33391
 Alpha virt. eigenvalues --    1.35264   1.38248   1.43554   1.46469   1.46879
 Alpha virt. eigenvalues --    1.47169   1.47585   1.49862   1.51580   1.52704
 Alpha virt. eigenvalues --    1.52944   1.54364   1.54943   1.55571   1.56280
 Alpha virt. eigenvalues --    1.58571   1.58933   1.59462   1.60341   1.62464
 Alpha virt. eigenvalues --    1.62739   1.63759   1.63920   1.64527   1.65996
 Alpha virt. eigenvalues --    1.67804   1.69440   1.70111   1.72029   1.72062
 Alpha virt. eigenvalues --    1.72945   1.73780   1.74342   1.76093   1.76146
 Alpha virt. eigenvalues --    1.79727   1.80692   1.82119   1.84786   1.86484
 Alpha virt. eigenvalues --    1.91751   1.92243   1.92468   1.93102   1.95267
 Alpha virt. eigenvalues --    1.96752   2.00664   2.03332   2.04044   2.05156
 Alpha virt. eigenvalues --    2.05661   2.07966   2.10995   2.12199   2.15642
 Alpha virt. eigenvalues --    2.19021   2.21029   2.21173   2.21902   2.22728
 Alpha virt. eigenvalues --    2.24951   2.29557   2.32508   2.33167   2.35341
 Alpha virt. eigenvalues --    2.42863   2.43704   2.45743   2.46279   2.47242
 Alpha virt. eigenvalues --    2.49588   2.50518   2.51328   2.51432   2.52646
 Alpha virt. eigenvalues --    2.52689   2.53955   2.54194   2.55376   2.56924
 Alpha virt. eigenvalues --    2.58728   2.59942   2.60069   2.61742   2.65333
 Alpha virt. eigenvalues --    2.66640   2.67038   2.69740   2.71007   2.72141
 Alpha virt. eigenvalues --    2.72472   2.73319   2.74945   2.76595   2.79498
 Alpha virt. eigenvalues --    2.80404   2.85080   2.85609   2.86083   2.89471
 Alpha virt. eigenvalues --    2.89964   2.90302   2.91970   2.92496   2.92566
 Alpha virt. eigenvalues --    2.95101   2.95229   2.96496   2.97185   2.98310
 Alpha virt. eigenvalues --    3.05497   3.07363   3.10997   3.15745   3.33024
 Alpha virt. eigenvalues --    3.34331   3.38981   3.40664   3.41216   3.44733
 Alpha virt. eigenvalues --    3.49600   3.53415   3.58146   3.67249   3.68290
 Alpha virt. eigenvalues --    3.72211   3.77817   3.78449   3.79777   3.80063
 Alpha virt. eigenvalues --    3.84990   3.85472   3.85797   3.86443   3.87181
 Alpha virt. eigenvalues --    3.89990   3.90796   3.92887   4.12061   4.14132
 Alpha virt. eigenvalues --    4.15662   4.31918   4.32501   4.61548   4.87863
 Alpha virt. eigenvalues --    4.92901   4.94601   5.02870   5.09781   5.12687
 Alpha virt. eigenvalues --    5.35079   5.64423   5.81936  23.64719  23.72264
 Alpha virt. eigenvalues --   23.73400  23.78281  23.78924  23.87410  23.87660
 Alpha virt. eigenvalues --   23.89112  23.94111  35.27071  35.39273  49.66719
 Alpha virt. eigenvalues --   49.75991
          Condensed to atoms (all electrons):
               1          2          3          4          5          6
     1  C   11.228333  -4.883334  -1.233830  -0.013463   0.789334  -0.071205
     2  C   -4.883334  11.211247   0.749562  -0.060548  -1.231175   0.430723
     3  N   -1.233830   0.749562   7.933340   0.361184  -0.432283  -0.131733
     4  C   -0.013463  -0.060548   0.361184   6.357032   0.329135   0.011456
     5  N    0.789334  -1.231175  -0.432283   0.329135   7.918192   0.020660
     6  O   -0.071205   0.430723  -0.131733   0.011456   0.020660   8.001021
     7  O    0.424739  -0.057649   0.022693   0.007849  -0.144463   0.021505
     8  C   -0.025416   0.096841  -0.543832  -0.456171  -0.035934   0.157514
     9  C   -0.195206   0.002808   0.085201   0.016978  -0.039286  -0.061620
    10  C   -0.187963  -0.005904   0.084913   0.017420  -0.043032  -0.060655
    11  C    0.040328   0.080810  -0.076446  -0.484304  -0.588613  -0.009102
    12  C    0.006530  -0.214943  -0.031745   0.022902   0.108184   0.002724
    13  C    0.015291  -0.236279  -0.036092   0.029832   0.100755   0.002990
    14  H   -0.001687   0.009212  -0.089544   0.017074   0.013137  -0.001232
    15  H   -0.001485  -0.015419  -0.009129   0.009865  -0.004302   0.000668
    16  H    0.002004   0.008024   0.025060   0.006110   0.000027   0.000009
    17  H   -0.002347   0.012630  -0.023540  -0.011381   0.003009  -0.003933
    18  H   -0.001563  -0.015258  -0.009029   0.009732  -0.004164   0.000660
    19  H    0.001964   0.008158   0.025269   0.006172   0.000092  -0.000004
    20  H   -0.002413   0.012622  -0.023652  -0.011321   0.002996  -0.003968
    21  H    0.010651  -0.002852   0.009658   0.014632  -0.088313   0.000010
    22  H   -0.016396  -0.000288  -0.004131   0.008821  -0.009501   0.000009
    23  H    0.008700   0.001541   0.000001   0.005361   0.024476   0.000002
    24  H    0.014300  -0.002996   0.002827  -0.010080  -0.025588  -0.000009
    25  H   -0.016867  -0.000544  -0.003836   0.008264  -0.007926   0.000008
    26  H    0.009253   0.001864   0.000081   0.005236   0.024743   0.000001
    27  H    0.014433  -0.003127   0.002662  -0.010041  -0.026194  -0.000007
               7          8          9         10         11         12
     1  C    0.424739  -0.025416  -0.195206  -0.187963   0.040328   0.006530
     2  C   -0.057649   0.096841   0.002808  -0.005904   0.080810  -0.214943
     3  N    0.022693  -0.543832   0.085201   0.084913  -0.076446  -0.031745
     4  C    0.007849  -0.456171   0.016978   0.017420  -0.484304   0.022902
     5  N   -0.144463  -0.035934  -0.039286  -0.043032  -0.588613   0.108184
     6  O    0.021505   0.157514  -0.061620  -0.060655  -0.009102   0.002724
     7  O    8.003499  -0.006001   0.002398   0.002152   0.174102  -0.068790
     8  C   -0.006001   7.210751  -0.248033  -0.238225   0.135957  -0.031757
     9  C    0.002398  -0.248033   6.121066  -0.348814  -0.031381   0.012146
    10  C    0.002152  -0.238225  -0.348814   6.116704  -0.032152  -0.007007
    11  C    0.174102   0.135957  -0.031381  -0.032152   7.399005  -0.318785
    12  C   -0.068790  -0.031757   0.012146  -0.007007  -0.318785   6.124848
    13  C   -0.072669  -0.032056  -0.006921   0.011787  -0.292502  -0.302450
    14  H    0.000004   0.524575  -0.060179  -0.060354  -0.000067   0.000046
    15  H    0.000010   0.004010   0.382210   0.013406  -0.000126  -0.000046
    16  H    0.000001  -0.104704   0.436538   0.004900   0.000105  -0.000008
    17  H   -0.000011   0.032698   0.383905  -0.011540   0.000123  -0.000095
    18  H    0.000011   0.003477   0.013583   0.382346  -0.000122   0.000324
    19  H    0.000001  -0.105497   0.005165   0.436678   0.000115   0.000063
    20  H   -0.000007   0.033059  -0.011857   0.384053   0.000104  -0.000120
    21  H   -0.001177  -0.000330   0.000014   0.000010   0.530134  -0.060815
    22  H    0.000802   0.000014  -0.000051   0.000295   0.004493   0.382814
    23  H    0.000002   0.000107  -0.000006   0.000060  -0.104804   0.437183
    24  H   -0.004098   0.000088  -0.000103  -0.000139   0.038273   0.381926
    25  H    0.000783   0.000075   0.000267  -0.000055   0.001991   0.013831
    26  H    0.000108   0.000117   0.000062  -0.000009  -0.106143   0.007197
    27  H   -0.004440   0.000057  -0.000122  -0.000100   0.037021  -0.015522
              13         14         15         16         17         18
     1  C    0.015291  -0.001687  -0.001485   0.002004  -0.002347  -0.001563
     2  C   -0.236279   0.009212  -0.015419   0.008024   0.012630  -0.015258
     3  N   -0.036092  -0.089544  -0.009129   0.025060  -0.023540  -0.009029
     4  C    0.029832   0.017074   0.009865   0.006110  -0.011381   0.009732
     5  N    0.100755   0.013137  -0.004302   0.000027   0.003009  -0.004164
     6  O    0.002990  -0.001232   0.000668   0.000009  -0.003933   0.000660
     7  O   -0.072669   0.000004   0.000010   0.000001  -0.000011   0.000011
     8  C   -0.032056   0.524575   0.004010  -0.104704   0.032698   0.003477
     9  C   -0.006921  -0.060179   0.382210   0.436538   0.383905   0.013583
    10  C    0.011787  -0.060354   0.013406   0.004900  -0.011540   0.382346
    11  C   -0.292502  -0.000067  -0.000126   0.000105   0.000123  -0.000122
    12  C   -0.302450   0.000046  -0.000046  -0.000008  -0.000095   0.000324
    13  C    6.122688   0.000064   0.000316   0.000062  -0.000124  -0.000047
    14  H    0.000064   0.471278  -0.004102  -0.005157   0.004634  -0.004108
    15  H    0.000316  -0.004102   0.500927  -0.019621  -0.026841  -0.000363
    16  H    0.000062  -0.005157  -0.019621   0.491536  -0.023247   0.000106
    17  H   -0.000124   0.004634  -0.026841  -0.023247   0.479121  -0.000214
    18  H   -0.000047  -0.004108  -0.000363   0.000106  -0.000214   0.500951
    19  H   -0.000007  -0.005159   0.000106   0.002171  -0.000502  -0.019622
    20  H   -0.000089   0.004631  -0.000211  -0.000497   0.001831  -0.026834
    21  H   -0.061336   0.000103   0.000001   0.000000   0.000001   0.000001
    22  H    0.013696   0.000001   0.000000   0.000000   0.000000   0.000005
    23  H    0.005612   0.000000   0.000000   0.000000   0.000000   0.000000
    24  H   -0.015193   0.000001   0.000000   0.000000   0.000000  -0.000001
    25  H    0.385447   0.000001   0.000004   0.000000  -0.000001   0.000000
    26  H    0.435690   0.000000   0.000000   0.000000   0.000000   0.000000
    27  H    0.383376   0.000001  -0.000001   0.000000   0.000000   0.000000
              19         20         21         22         23         24
     1  C    0.001964  -0.002413   0.010651  -0.016396   0.008700   0.014300
     2  C    0.008158   0.012622  -0.002852  -0.000288   0.001541  -0.002996
     3  N    0.025269  -0.023652   0.009658  -0.004131   0.000001   0.002827
     4  C    0.006172  -0.011321   0.014632   0.008821   0.005361  -0.010080
     5  N    0.000092   0.002996  -0.088313  -0.009501   0.024476  -0.025588
     6  O   -0.000004  -0.003968   0.000010   0.000009   0.000002  -0.000009
     7  O    0.000001  -0.000007  -0.001177   0.000802   0.000002  -0.004098
     8  C   -0.105497   0.033059  -0.000330   0.000014   0.000107   0.000088
     9  C    0.005165  -0.011857   0.000014  -0.000051  -0.000006  -0.000103
    10  C    0.436678   0.384053   0.000010   0.000295   0.000060  -0.000139
    11  C    0.000115   0.000104   0.530134   0.004493  -0.104804   0.038273
    12  C    0.000063  -0.000120  -0.060815   0.382814   0.437183   0.381926
    13  C   -0.000007  -0.000089  -0.061336   0.013696   0.005612  -0.015193
    14  H   -0.005159   0.004631   0.000103   0.000001   0.000000   0.000001
    15  H    0.000106  -0.000211   0.000001   0.000000   0.000000   0.000000
    16  H    0.002171  -0.000497   0.000000   0.000000   0.000000   0.000000
    17  H   -0.000502   0.001831   0.000001   0.000000   0.000000   0.000000
    18  H   -0.019622  -0.026834   0.000001   0.000005   0.000000  -0.000001
    19  H    0.491571  -0.023275   0.000000   0.000000   0.000000   0.000000
    20  H   -0.023275   0.479105   0.000001  -0.000001   0.000000   0.000000
    21  H    0.000000   0.000001   0.473032  -0.004319  -0.004657   0.004758
    22  H    0.000000  -0.000001  -0.004319   0.501084  -0.019527  -0.027033
    23  H    0.000000   0.000000  -0.004657  -0.019527   0.491528  -0.022844
    24  H    0.000000   0.000000   0.004758  -0.027033  -0.022844   0.478995
    25  H    0.000000   0.000000  -0.004334  -0.000362   0.000133  -0.000214
    26  H    0.000000   0.000000  -0.004794   0.000135   0.002289  -0.000539
    27  H    0.000000   0.000000   0.004845  -0.000212  -0.000465   0.001736
              25         26         27
     1  C   -0.016867   0.009253   0.014433
     2  C   -0.000544   0.001864  -0.003127
     3  N   -0.003836   0.000081   0.002662
     4  C    0.008264   0.005236  -0.010041
     5  N   -0.007926   0.024743  -0.026194
     6  O    0.000008   0.000001  -0.000007
     7  O    0.000783   0.000108  -0.004440
     8  C    0.000075   0.000117   0.000057
     9  C    0.000267   0.000062  -0.000122
    10  C   -0.000055  -0.000009  -0.000100
    11  C    0.001991  -0.106143   0.037021
    12  C    0.013831   0.007197  -0.015522
    13  C    0.385447   0.435690   0.383376
    14  H    0.000001   0.000000   0.000001
    15  H    0.000004   0.000000  -0.000001
    16  H    0.000000   0.000000   0.000000
    17  H   -0.000001   0.000000   0.000000
    18  H    0.000000   0.000000   0.000000
    19  H    0.000000   0.000000   0.000000
    20  H    0.000000   0.000000   0.000000
    21  H   -0.004334  -0.004794   0.004845
    22  H   -0.000362   0.000135  -0.000212
    23  H    0.000133   0.002289  -0.000465
    24  H   -0.000214  -0.000539   0.001736
    25  H    0.500448  -0.019511  -0.027251
    26  H   -0.019511   0.492037  -0.022829
    27  H   -0.027251  -0.022829   0.479666
 Mulliken charges:
               1
     1  C    0.087317
     2  C    0.104275
     3  N    0.346371
     4  C   -0.187746
     5  N    0.346034
     6  O   -0.306493
     7  O   -0.301354
     8  C   -0.371383
     9  C   -0.458761
    10  C   -0.458776
    11  C   -0.398016
    12  C   -0.448636
    13  C   -0.451840
    14  H    0.186826
    15  H    0.170120
    16  H    0.176582
    17  H    0.185821
    18  H    0.170128
    19  H    0.176543
    20  H    0.185843
    21  H    0.185075
    22  H    0.169653
    23  H    0.175309
    24  H    0.185932
    25  H    0.169651
    26  H    0.175014
    27  H    0.186513
 Sum of Mulliken charges =   0.00000
 Mulliken charges with hydrogens summed into heavy atoms:
               1
     1  C    0.087317
     2  C    0.104275
     3  N    0.346371
     4  C   -0.187746
     5  N    0.346034
     6  O   -0.306493
     7  O   -0.301354
     8  C   -0.184557
     9  C    0.073762
    10  C    0.073738
    11  C   -0.212941
    12  C    0.082258
    13  C    0.079336
 Electronic spatial extent (au):  <R**2>=           2721.7268
 Charge=              0.0000 electrons
 Dipole moment (field-independent basis, Debye):
    X=              0.0799    Y=             -3.9648    Z=              0.0750  Tot=              3.9663
 Quadrupole moment (field-independent basis, Debye-Ang):
   XX=            -66.1977   YY=            -93.6020   ZZ=            -75.1091
   XY=              0.1328   XZ=             -0.0028   YZ=              0.3659
 Traceless Quadrupole moment (field-independent basis, Debye-Ang):
   XX=             12.1052   YY=            -15.2991   ZZ=              3.1938
   XY=              0.1328   XZ=             -0.0028   YZ=              0.3659
 Octapole moment (field-independent basis, Debye-Ang**2):
  XXX=              1.2511  YYY=             -7.9579  ZZZ=             -0.1614  XYY=             -0.1144
  XXY=            -30.0017  XXZ=              0.5745  XZZ=              0.0873  YZZ=              3.9927
  YYZ=              0.2411  XYZ=              0.0365
 Hexadecapole moment (field-independent basis, Debye-Ang**3):
 XXXX=          -2432.1098 YYYY=           -684.5401 ZZZZ=           -414.1775 XXXY=              0.9378
 XXXZ=             -0.0801 YYYX=             -0.0795 YYYZ=              1.6301 ZZZX=             -0.1511
 ZZZY=             -0.1217 XXYY=           -539.6597 XXZZ=           -504.9238 YYZZ=           -166.9691
 XXYZ=             -0.0035 YYXZ=              0.0999 ZZXY=              0.0578
 N-N= 8.353968287391D+02 E-N=-3.095151548423D+03  KE= 6.079586809822D+02
 No NMR shielding tensors so no spin-rotation constants.
 Leave Link  601 at Sun Jun 20 23:34:18 2021, MaxMem=  3355443200 cpu:         2.8
 (Enter /usr/local/gqt/g09/l701.exe)
 Compute integral first derivatives.
 ... and contract with generalized density number  0.
 D1PCM: PCM CHGder 1st derivatives, ID1Alg=3 FixD1E=F DoIter=F DoCFld=F I1PDM=0.
 GePol: Maximum number of non-zero 1st derivatives   =     203
 Leave Link  701 at Sun Jun 20 23:34:20 2021, MaxMem=  3355443200 cpu:        33.3
 (Enter /usr/local/gqt/g09/l702.exe)
 L702 exits ... SP integral derivatives will be done elsewhere.
 Leave Link  702 at Sun Jun 20 23:34:20 2021, MaxMem=  3355443200 cpu:         0.3
 (Enter /usr/local/gqt/g09/l703.exe)
 Compute integral first derivatives, UseDBF=F ICtDFT=           0.
 Integral derivatives from FoFJK, PRISM(SPDF).
 Calling FoFJK, ICntrl=      2127 FMM=F ISym2X=0 I1Cent= 0 IOpClX= 0 NMat=1 NMatS=1 NMatT=0.
 FoFJK:  IHMeth= 1 ICntrl=    2127 DoSepK=T KAlg= 0 I1Cent=   0 FoldK=F
 IRaf=         1 NMat=   1 IRICut=       1 DoRegI=T DoRafI=F ISym2E= 0.
 FoFCou: FMM=F IPFlag=           0 FMFlag=      100000 FMFlg1=         800
         NFxFlg=           0 DoJE=F BraDBF=F KetDBF=F FulRan=T
         wScrn=  0.000000 ICntrl=    2527 IOpCl=  0 I1Cent=           0 NGrid=           0
         NMat0=    1 NMatS0=      1 NMatT0=    0 NMatD0=    1 NMtDS0=    0 NMtDT0=    0
 Symmetry not used in FoFCou.
 Leave Link  703 at Sun Jun 20 23:35:05 2021, MaxMem=  3355443200 cpu:       711.1
 (Enter /usr/local/gqt/g09/l716.exe)
 Dipole        = 3.14532551D-02-1.55987269D+00 2.95001599D-02
 ***** Axes restored to original set *****
 -------------------------------------------------------------------
 Center     Atomic                   Forces (Hartrees/Bohr)
 Number     Number              X              Y              Z
 -------------------------------------------------------------------
      1        6          -0.001524247    0.000298246    0.000068910
      2        6          -0.000378446    0.000043641   -0.000047770
      3        7          -0.000918984    0.000498192    0.000032561
      4        6           0.001261542   -0.000139535    0.000004880
      5        7           0.002268018    0.000100772   -0.000135722
      6        8          -0.000098280    0.000057304    0.000016903
      7        8          -0.001831699    0.001049088    0.000187967
      8        6           0.000075397   -0.000055419    0.000008859
      9        6          -0.000036841   -0.000023158   -0.000062112
     10        6          -0.000031348   -0.000009546    0.000060404
     11        6           0.000088996   -0.002803892   -0.000045022
     12        6           0.000154397    0.001219752    0.000861613
     13        6           0.000351305    0.001331076   -0.000886401
     14        1          -0.000110726   -0.000029747    0.000004016
     15        1          -0.000014001   -0.000014059   -0.000004564
     16        1           0.000037583    0.000007066    0.000042669
     17        1           0.000037978    0.000039145    0.000046611
     18        1          -0.000016972   -0.000013398   -0.000000543
     19        1           0.000045367   -0.000000960   -0.000043717
     20        1           0.000030121    0.000013306   -0.000059080
     21        1          -0.001184429    0.000445541    0.000042723
     22        1          -0.000014454   -0.000287520   -0.000154804
     23        1          -0.000192944    0.000006429   -0.000080037
     24        1           0.001050544   -0.000530235    0.000602022
     25        1          -0.000007811   -0.000323194    0.000105682
     26        1          -0.000219619   -0.000083052    0.000098933
     27        1           0.001179552   -0.000795844   -0.000664980
 -------------------------------------------------------------------
 Cartesian Forces:  Max     0.002803892 RMS     0.000647420
 Leave Link  716 at Sun Jun 20 23:35:05 2021, MaxMem=  3355443200 cpu:         0.3
 (Enter /usr/local/gqt/g09/l103.exe)

 GradGradGradGradGradGradGradGradGradGradGradGradGradGradGradGradGradGrad
 Berny optimization.
 FormGI is forming the generalized inverse of G from B-inverse, IUseBI=4.
 Internal  Forces:  Max     0.007239136 RMS     0.001008798
 Search for a local minimum.
 Step number   1 out of a maximum of  150
 All quantities printed in internal units (Hartrees-Bohrs-Radians)
 RMS Force = .10088D-02 SwitMx=.10000D-02 MixMth= 1
 Mixed Optimization -- RFO/linear search
 Second derivative matrix not updated -- first step.
 ITU=  0
     Eigenvalues ---    0.00513   0.00513   0.00533   0.00533   0.00745
     Eigenvalues ---    0.00758   0.00921   0.01258   0.01317   0.01430
     Eigenvalues ---    0.01712   0.02104   0.03753   0.03893   0.04679
     Eigenvalues ---    0.04695   0.05585   0.05585   0.05653   0.05653
     Eigenvalues ---    0.05809   0.05809   0.05820   0.05820   0.06271
     Eigenvalues ---    0.06315   0.16000   0.16000   0.16000   0.16000
     Eigenvalues ---    0.16000   0.16000   0.16000   0.16000   0.16000
     Eigenvalues ---    0.16000   0.16000   0.16000   0.17192   0.17366
     Eigenvalues ---    0.18042   0.18242   0.25000   0.25000   0.25000
     Eigenvalues ---    0.25000   0.25000   0.25000   0.28501   0.30449
     Eigenvalues ---    0.30450   0.30599   0.30600   0.35043   0.35043
     Eigenvalues ---    0.35046   0.35070   0.35071   0.35073   0.35073
     Eigenvalues ---    0.35095   0.35096   0.35097   0.35097   0.35126
     Eigenvalues ---    0.35126   0.35148   0.35556   0.35666   0.44499
     Eigenvalues ---    0.48701   0.50356   0.51613   1.06133   1.06291
 RFO step:  Lambda=-8.05296220D-04 EMin= 5.12731933D-03
 Linear search not attempted -- first point.
 Iteration  1 RMS(Cart)=  0.03452603 RMS(Int)=  0.00062513
 Iteration  2 RMS(Cart)=  0.00082523 RMS(Int)=  0.00004565
 Iteration  3 RMS(Cart)=  0.00000021 RMS(Int)=  0.00004565
 ITry= 1 IFail=0 DXMaxC= 1.56D-01 DCOld= 1.00D+10 DXMaxT= 3.00D-01 DXLimC= 3.00D+00 Rises=F
 Variable       Old X    -DE/DX   Delta X   Delta X   Delta X     New X
                                 (Linear)    (Quad)   (Total)
    R1        2.90293   0.00049   0.00000   0.00176   0.00176   2.90469
    R2        2.59486   0.00353   0.00000   0.00737   0.00737   2.60224
    R3        2.26279   0.00007   0.00000   0.00007   0.00007   2.26286
    R4        2.60225  -0.00069   0.00000  -0.00175  -0.00176   2.60049
    R5        2.26220   0.00011   0.00000   0.00010   0.00010   2.26231
    R6        2.57805   0.00052   0.00000   0.00074   0.00074   2.57879
    R7        2.78081   0.00004   0.00000   0.00010   0.00010   2.78091
    R8        2.57874  -0.00003   0.00000   0.00014   0.00014   2.57888
    R9        2.77907   0.00151   0.00000   0.00423   0.00423   2.78330
   R10        2.87074  -0.00003   0.00000  -0.00011  -0.00011   2.87063
   R11        2.87076  -0.00006   0.00000  -0.00018  -0.00018   2.87058
   R12        2.05435   0.00000   0.00000   0.00000   0.00000   2.05435
   R13        2.05560   0.00000   0.00000   0.00000   0.00000   2.05560
   R14        2.05517  -0.00003   0.00000  -0.00010  -0.00010   2.05507
   R15        2.05471   0.00002   0.00000   0.00006   0.00006   2.05478
   R16        2.05561  -0.00001   0.00000  -0.00002  -0.00002   2.05559
   R17        2.05517  -0.00004   0.00000  -0.00010  -0.00010   2.05507
   R18        2.05471   0.00000   0.00000  -0.00001  -0.00001   2.05471
   R19        2.86785   0.00159   0.00000   0.00519   0.00519   2.87304
   R20        2.86784   0.00172   0.00000   0.00560   0.00560   2.87344
   R21        2.05600  -0.00053   0.00000  -0.00150  -0.00150   2.05450
   R22        2.05557   0.00000   0.00000  -0.00001  -0.00001   2.05556
   R23        2.05520  -0.00019   0.00000  -0.00054  -0.00054   2.05466
   R24        2.05606  -0.00058   0.00000  -0.00165  -0.00165   2.05441
   R25        2.05557   0.00003   0.00000   0.00010   0.00010   2.05567
   R26        2.05520  -0.00020   0.00000  -0.00056  -0.00056   2.05464
   R27        2.05605  -0.00088   0.00000  -0.00250  -0.00250   2.05355
    A1        1.81144   0.00035   0.00000   0.00224   0.00224   1.81367
    A2        2.21308  -0.00257   0.00000  -0.01065  -0.01066   2.20243
    A3        2.25866   0.00221   0.00000   0.00841   0.00840   2.26706
    A4        1.81206   0.00024   0.00000   0.00033   0.00032   1.81239
    A5        2.20709  -0.00009   0.00000  -0.00003  -0.00003   2.20707
    A6        2.26403  -0.00016   0.00000  -0.00030  -0.00030   2.26373
    A7        1.96575  -0.00009   0.00000  -0.00145  -0.00145   1.96431
    A8        2.18288   0.00004   0.00000   0.00069   0.00069   2.18358
    A9        2.13455   0.00005   0.00000   0.00075   0.00076   2.13530
   A10        1.86607   0.00148   0.00000   0.00577   0.00578   1.87184
   A11        1.96945  -0.00199   0.00000  -0.00689  -0.00689   1.96256
   A12        2.15478   0.00724   0.00000   0.02835   0.02833   2.18312
   A13        2.15895  -0.00525   0.00000  -0.02145  -0.02146   2.13749
   A14        1.93560  -0.00003   0.00000  -0.00031  -0.00031   1.93529
   A15        1.93556   0.00001   0.00000  -0.00007  -0.00007   1.93548
   A16        1.80432   0.00007   0.00000   0.00137   0.00137   1.80568
   A17        1.97379  -0.00002   0.00000  -0.00052  -0.00052   1.97327
   A18        1.90322   0.00000   0.00000  -0.00005  -0.00005   1.90317
   A19        1.90321  -0.00002   0.00000  -0.00024  -0.00024   1.90296
   A20        1.93631   0.00004   0.00000   0.00031   0.00031   1.93662
   A21        1.90839  -0.00005   0.00000  -0.00036  -0.00036   1.90803
   A22        1.94326  -0.00009   0.00000  -0.00057  -0.00057   1.94269
   A23        1.88843   0.00001   0.00000   0.00014   0.00014   1.88856
   A24        1.89850   0.00003   0.00000   0.00022   0.00022   1.89871
   A25        1.88750   0.00006   0.00000   0.00029   0.00029   1.88779
   A26        1.93629   0.00004   0.00000   0.00031   0.00031   1.93659
   A27        1.90840  -0.00007   0.00000  -0.00049  -0.00049   1.90791
   A28        1.94328  -0.00008   0.00000  -0.00051  -0.00051   1.94277
[...]
 9811381,-0.01109138,-0.00005938,0.00003992,0.00001661,0.00001740,-0.00
 000654,-0.00000565,0.00000982,-0.00000406,0.00000546,0.00044747,0.0015
 3984,-0.00058395,-0.00004247,0.00022007,-0.00004363,0.00002001,0.00000
 763,-0.00003161,-0.00018579,0.00007905,-0.00050068,0.00043002,-0.00424
 085,-0.00043840,0.00636154,-0.01596529,-0.00043968,-0.08799554,0.32106
 874,0.00012654,0.00024793,-0.00014500,0.00137393,-0.00111246,0.0000025
 3,-0.00141168,0.00110547,0.00114107,0.00057783,-0.00003423,0.00010555,
 -0.00013541,0.00000880,0.00002645,-0.00101122,0.00051362,0.00014598,-0
 .00003321,-0.00002895,0.00001788,0.00838246,-0.03015513,-0.00254525,0.
 00013408,-0.00078337,0.00207516,0.00183060,-0.00803346,-0.04818252,0.0
 0001804,0.00001228,-0.00001447,-0.00000664,0.00000362,0.00000342,-0.00
 000197,0.00000247,-0.00000119,0.00304719,-0.00033745,-0.00441437,-0.00
 002413,0.00034915,0.00022359,-0.00004533,0.00005312,-0.00004515,-0.000
 31638,0.00050610,-0.00030256,-0.00643673,0.02526287,0.00190594,-0.0001
 1170,0.00005588,-0.00128694,-0.00594260,0.01235788,0.05129311,-0.00596
 723,-0.00434765,-0.00003930,0.00055073,0.00249222,0.00001977,-0.000110
 60,-0.00116781,-0.00000848,0.00292599,0.00333859,0.00002732,-0.0166219
 4,0.04234310,0.00034490,-0.00143336,-0.00015401,-0.00000271,0.00120167
 ,0.00100288,0.00000928,0.00008990,-0.00001489,-0.00000011,-0.00002983,
 -0.00002943,-0.00000251,-0.00002984,-0.00002949,0.00000198,-0.04731690
 ,0.00096674,0.00000724,0.00060851,-0.01519666,-0.00099439,0.00060383,-
 0.01528750,0.00073992,-0.00010362,-0.00005345,-0.00000053,-0.00000133,
 0.00000099,-0.00000093,-0.00000998,-0.00000561,-0.00001065,0.00001936,
 -0.00000440,0.00001329,-0.00000132,0.00000098,0.00000094,-0.00001000,-
 0.00000578,0.00001054,0.00001940,-0.00000418,-0.00001333,0.06504052,0.
 00062607,0.00176707,0.00001229,-0.00091271,0.00025516,0.00000101,0.000
 22994,0.00048857,0.00000524,-0.00367000,-0.00024734,-0.00000532,0.0057
 1240,-0.01082859,-0.00009029,0.00059637,-0.00022097,-0.00000136,-0.000
 21890,-0.00028092,-0.00000353,-0.00005729,-0.00005968,-0.00000009,0.00
 002576,0.00001831,-0.00001826,0.00002552,0.00001792,0.00001849,0.01424
 886,-0.32270603,-0.00236877,-0.00101147,-0.00944935,-0.00190390,-0.001
 01931,-0.01000410,0.00178279,0.00001125,0.00001560,0.00000008,-0.00000
 274,0.00000012,0.00000268,0.00001021,0.00000182,0.00001229,-0.00000652
 ,-0.00000380,-0.00000507,-0.00000276,0.00000015,-0.00000268,0.00001019
 ,0.00000200,-0.00001215,-0.00000656,-0.00000392,0.00000500,-0.01281787
 ,0.34685543,-0.00000192,0.00000831,0.00024910,-0.00000698,0.00000506,0
 .,0.00000227,0.00000334,-0.00001927,-0.00002846,0.00000094,-0.00003091
 ,0.00002786,-0.00004440,0.00062254,0.00000307,-0.00000206,0.00003042,-
 0.00000080,-0.00000242,0.00011308,-0.00000028,0.00000013,-0.00007793,-
 0.00001438,-0.00000664,0.00000733,0.00001471,0.00000679,0.00000775,0.0
 0012298,-0.00238477,-0.04781954,-0.00014133,-0.03036669,-0.00315128,0.
 00013349,0.03020993,-0.00258991,0.,0.00000004,0.00000603,-0.00000133,-
 0.00000020,0.00000034,-0.00000305,0.00000020,-0.00000526,-0.00000202,-
 0.00000143,-0.00000033,0.00000129,0.00000020,0.00000031,0.00000320,-0.
 00000011,-0.00000543,0.00000195,0.00000137,-0.00000024,-0.00010024,0.0
 0249773,0.05706027,-0.00003856,0.00055544,-0.00003772,-0.00005640,0.00
 014888,-0.00004065,0.00029466,-0.00012424,-0.00006494,-0.00002253,-0.0
 0014375,0.00015222,0.00190053,0.00052142,0.00014641,0.00007776,-0.0000
 7948,0.00001125,-0.00011868,-0.00019026,0.00003424,-0.00005221,-0.0000
 5842,-0.00000716,0.00001473,0.00001129,-0.00000855,0.00001930,0.000013
 90,0.00001062,0.00493624,0.00666934,-0.01436072,-0.10487255,-0.0485020
 1,0.10276943,-0.00108133,-0.00105708,-0.00220615,-0.00000173,0.0000021
 0,-0.00000129,-0.00000337,-0.00000111,0.00000006,0.00000700,0.00000070
 ,0.00000651,-0.00000125,-0.00000122,-0.00000020,-0.00000956,-0.0000023
 0,-0.00000094,0.00000816,0.00000083,-0.00000773,-0.00000268,-0.0000013
 6,-0.00000083,0.00038958,0.00021266,0.00071484,0.10996571,-0.00008787,
 -0.00031791,0.00015631,-0.00001594,0.00006650,-0.00001036,0.00005102,-
 0.00006138,-0.00006494,0.00015118,0.00008961,0.00022418,0.00043746,0.0
 0022736,0.00038571,0.00001919,-0.00002509,0.00000066,0.00042032,0.0000
 0467,0.00006479,-0.00001530,-0.00000662,-0.00001705,-0.00000082,-0.000
 00122,-0.00000157,0.00000759,0.00000291,0.00000584,0.00660268,0.003658
 59,-0.01055725,-0.04904377,-0.08860051,0.08532148,-0.00128796,-0.00016
 680,-0.00176028,-0.00000165,0.00000055,-0.00000024,0.00000003,-0.00000
 029,-0.00000004,0.00000044,0.00000039,0.00000036,-0.00000068,-0.000000
 41,0.00000044,-0.00000189,0.00000230,-0.00000146,0.00000159,0.00000039
 ,-0.00000314,-0.00000087,-0.00000054,0.00000071,0.00065810,0.00063541,
 0.00040605,0.05365158,0.09058357,-0.00026713,0.00051852,-0.00011766,0.
 00002445,0.00007665,-0.00004811,-0.00005584,-0.00003575,-0.00011152,-0
 .00049971,-0.00019812,0.00015597,0.00157399,0.00009294,0.00204171,-0.0
 0005455,0.00000621,0.00001125,-0.00015646,-0.00007136,-0.00004303,0.00
 000740,0.00000956,-0.00001586,-0.00000402,-0.00000243,0.00000063,0.000
 00262,0.00000347,-0.00000305,0.01395821,0.01110573,-0.02252096,0.09973
 759,0.08364463,-0.22320306,-0.00395811,-0.00306672,-0.00357179,0.,-0.0
 0000284,0.00000029,0.00000004,0.00000005,0.00000048,-0.00000170,-0.000
 00027,-0.00000151,0.00000071,-0.00000013,0.00000024,0.00000130,-0.0000
 0106,0.00000434,0.00000117,-0.00000051,0.00000076,-0.00000032,-0.00000
 025,-0.00000022,0.00026500,-0.00011530,0.00104439,-0.10849222,-0.09032
 514,0.24413244,0.00039026,-0.00176285,0.00016893,0.00023494,-0.0004918
 9,0.00006531,-0.00097853,0.00029485,0.00014069,0.00095737,0.00098901,-
 0.00046194,-0.00166204,-0.00156420,-0.00308898,-0.00033705,0.00026204,
 0.00000126,0.00020277,0.00067115,-0.00003400,0.00017854,0.00021155,0.0
 0007167,-0.00004139,-0.00003942,0.00002645,-0.00006841,-0.00005869,-0.
 00003580,-0.01310313,0.00470259,0.00227356,-0.29998376,0.07717345,-0.0
 0346358,0.00017866,0.00024061,0.00100368,-0.00000724,-0.00001340,-0.00
 000300,0.00000663,0.00000179,-0.00000169,-0.00002334,-0.00000227,-0.00
 002117,0.00000745,0.00000481,0.00000162,0.00000802,0.00000112,-0.00000
 090,-0.00002890,-0.00000070,0.00002897,0.00000826,0.00000546,-0.000001
 29,0.00040347,-0.00029694,0.00032159,-0.01218538,0.00408554,-0.0010287
 4,0.32422182,-0.00066405,-0.00176319,-0.00037422,-0.00003792,-0.000120
 30,-0.00005537,-0.00039384,0.00009269,0.00016927,0.00013481,0.00031198
 ,-0.00022090,-0.00282534,0.00055732,-0.00283455,-0.00002591,0.00004867
 ,0.00001636,0.00110628,0.00045848,0.00059264,0.00003446,0.00007923,0.0
 0004536,-0.00000817,-0.00000974,0.00000640,-0.00002524,-0.00002382,-0.
 00000741,-0.01103199,0.00196848,0.00042053,0.07870793,-0.06983756,0.00
 076763,0.00015345,0.00019869,0.00033565,0.00000250,-0.00000070,-0.0000
 0114,0.00000141,0.00000074,-0.00000029,-0.00000575,0.00000034,-0.00000
 462,0.00000038,0.00000103,0.00000003,0.00000187,0.00000049,-0.00000086
 ,-0.00000998,0.00000127,0.00000979,0.00000114,0.00000207,-0.00000063,0
 .00001397,0.00046729,0.00083810,-0.01261172,0.00312191,-0.00113856,-0.
 08366335,0.07148429,-0.00006026,-0.00168373,-0.00008372,0.00017351,-0.
 00048505,0.00013447,-0.00114704,0.00020679,0.00022644,0.00031205,0.000
 88411,-0.00060788,-0.00438349,-0.00227681,-0.00453551,-0.00030709,0.00
 024842,-0.00000157,0.00030322,0.00072655,-0.00002659,0.00017727,0.0002
 3600,0.00011764,-0.00003412,-0.00003332,0.00002637,-0.00007888,-0.0000
 6675,-0.00003928,-0.02535262,0.00976522,0.00022514,-0.00028621,0.00003
 442,-0.04723059,-0.00007355,0.00049731,0.00105579,-0.00000591,-0.00001
 504,-0.00000549,0.00000626,0.00000186,-0.00000151,-0.00002159,-0.00000
 241,-0.00001931,0.00000732,0.00000450,0.00000099,0.00000837,-0.0000003
 7,0.00000080,-0.00003091,-0.00000045,0.00003395,0.00000760,0.00000599,
 -0.00000287,0.00046987,0.00001926,0.00118194,0.02451188,-0.00890977,0.
 00124435,0.00420318,0.00110749,0.04979120,-0.00117466,-0.00134908,-0.0
 0053297,-0.00029893,0.00015849,-0.00018149,0.00033694,-0.00006666,0.00
 005705,-0.00075096,-0.00035503,0.00008210,0.00141950,0.00070565,0.0010
 4664,0.00023588,-0.00010695,0.00001988,0.00072397,0.00086237,0.0002879
 5,-0.00008888,-0.00004946,-0.00001635,0.00001624,0.00001219,-0.0000104
 3,0.00002184,0.00001683,0.00001090,-0.00079539,-0.01713541,-0.00147313
 ,-0.04713478,0.01046050,0.00169523,-0.00000652,0.00059551,0.00094987,0
 .00001339,0.00001265,-0.00000223,-0.00000175,0.00000020,0.00000064,0.0
 0000839,0.00000209,0.00000842,-0.00000585,-0.00000116,-0.00000237,-0.0
 0000315,-0.00000006,0.00000037,0.00000969,0.00000155,-0.00000910,-0.00
 000475,-0.00000112,0.00000079,-0.00050004,-0.00078390,-0.00284650,0.00
 008283,-0.01546307,-0.00172698,0.00062897,0.03118308,0.00126026,0.0470
 8124,-0.00079423,-0.00121729,-0.00015817,-0.00009916,-0.00004506,-0.00
 020888,-0.00016005,0.00017618,0.00003456,-0.00008870,-0.00004215,0.000
 04381,-0.00004001,0.00084097,0.00001668,0.00002082,0.00002753,0.000038
 40,0.00169227,-0.00006651,0.00103930,0.00001385,0.00004342,0.00001204,
 -0.00000268,-0.00000323,0.00000206,-0.00000734,-0.00000675,-0.00000223
 ,0.00059957,-0.01119026,-0.00056932,0.00829653,-0.32291853,-0.01156071
 ,0.00000327,0.00085810,0.00064431,0.00001026,0.00000203,0.00000069,0.0
 0000075,0.00000010,0.00000035,-0.00000226,0.00000012,-0.00000182,-0.00
 000118,0.00000092,-0.00000080,0.00000044,-0.00000008,-0.00000013,-0.00
 000280,0.00000068,0.00000311,-0.00000060,0.00000012,0.00000042,-0.0011
 6700,0.00110448,-0.00163076,0.00110292,-0.00986398,-0.00107828,-0.0004
 8330,-0.00717547,-0.00005273,-0.00906117,0.34896420,-0.00092995,-0.001
 51644,-0.00000501,-0.00020274,0.00019250,-0.00014698,0.00012634,0.0000
 5309,0.00002725,-0.00053792,-0.00022693,0.00010371,0.00096397,0.001516
 55,0.00115309,0.00004219,-0.00001680,0.00001820,0.00079253,0.00082346,
 0.00015533,-0.00002151,0.00000534,-0.00001462,0.00000114,0.00000306,-0
 .00000124,0.00000515,0.00000572,0.00000350,0.00217233,-0.03132032,-0.0
 0259271,0.00097754,-0.00856111,-0.04819409,0.00012450,-0.00078294,0.00
 207959,0.00001098,0.00000923,-0.00000020,-0.00000003,-0.00000049,0.000
 00024,0.00000149,0.00000050,0.00000095,-0.00000252,0.00000002,-0.00000
 213,0.00000053,0.00000094,-0.00000021,0.00000150,-0.00000016,-0.000002
 91,-0.00000092,0.00000013,0.00000109,-0.00274243,-0.00133006,-0.004446
 10,-0.00237218,0.02586922,0.00192495,0.00009516,0.00023163,-0.00128022
 ,0.00143401,0.01405768,0.05134233,-0.00003950,0.00055578,0.00004743,-0
 .00005631,0.00014844,0.00004280,0.00029474,-0.00012522,0.00006350,-0.0
 0002413,-0.00014263,-0.00015438,0.00190322,0.00052384,-0.00013867,0.00
 007765,-0.00007925,-0.00001238,-0.00011857,-0.00018972,-0.00003776,-0.
 00005218,-0.00005850,0.00000617,0.00001933,0.00001407,-0.00001034,0.00
 001470,0.00001115,0.00000875,0.00493748,0.00644391,0.01454486,-0.00109
 678,-0.00110310,0.00219373,-0.10439215,-0.04650274,-0.10331815,-0.0000
 0170,0.00000209,0.00000132,-0.00000952,-0.00000231,0.00000087,0.000008
 15,0.00000071,0.00000776,-0.00000268,-0.00000138,0.00000080,-0.0000033
 7,-0.00000111,-0.00000008,0.00000701,0.00000080,-0.00000648,-0.0000012
 4,-0.00000122,0.00000017,0.00039165,0.00022523,-0.00071275,0.00058803,
 0.00003418,0.00071324,0.00028468,-0.00008540,0.00014061,-0.00012319,-0
 .00007884,-0.00009558,0.10945306,-0.00009206,-0.00030711,-0.00016017,-
 0.00001596,0.00006767,0.00001246,0.00005004,-0.00006293,0.00006594,0.0
 0014241,0.00008889,-0.00022499,0.00046533,0.00023810,-0.00041648,0.000
 01824,-0.00002496,-0.00000125,0.00041796,0.00000528,-0.00006194,-0.000
 01522,-0.00000676,0.00001717,0.00000765,0.00000307,-0.00000571,-0.0000
 0088,-0.00000127,0.00000154,0.00681958,0.00365778,0.01102574,-0.001360
 54,-0.00025128,0.00181389,-0.04709375,-0.08567700,-0.08301545,-0.00000
 164,0.00000050,0.00000025,-0.00000186,0.00000225,0.00000140,0.00000161
 ,0.00000033,0.00000313,-0.00000087,-0.00000053,-0.00000071,0.00000002,
 -0.00000029,0.00000003,0.00000042,0.00000039,-0.00000033,-0.00000066,-
 0.00000041,-0.00000045,0.00066359,0.00064041,-0.00041141,0.00004477,0.
 00050837,0.00066004,-0.00022443,-0.00010504,-0.00018622,0.00002217,0.0
 0024314,0.00033750,0.05153589,0.08746037,0.00026585,-0.00051968,-0.000
 12884,-0.00002507,-0.00007445,-0.00004892,0.00005727,0.00003613,-0.000
 10945,0.00050180,0.00019755,0.00015580,-0.00156543,-0.00012373,0.00202
 928,0.00005514,-0.00000707,0.00001118,0.00016361,0.00007083,-0.0000429
 2,-0.00000783,-0.00000961,-0.00001579,-0.00000245,-0.00000334,-0.00000
 323,0.00000406,0.00000244,0.00000074,-0.01377743,-0.01063299,-0.022520
 51,0.00394083,0.00312217,-0.00347198,-0.10029541,-0.08133693,-0.226600
 52,-0.00000004,0.00000283,0.00000036,-0.00000136,0.00000103,0.00000437
 ,-0.00000112,0.00000051,0.00000084,0.00000030,0.00000024,-0.00000022,-
 0.00000006,-0.00000007,0.00000048,0.00000173,0.00000030,-0.00000153,-0
 .00000073,0.00000011,0.00000023,-0.00025479,0.00010900,0.00103691,-0.0
 0070720,-0.00062526,-0.00150413,-0.00004136,0.00009166,0.00035936,0.00
 007671,-0.00001890,0.00022396,0.10909200,0.08769675,0.24776330,0.00039
 111,-0.00176160,-0.00019722,0.00023554,-0.00049191,-0.00007295,-0.0009
 8101,0.00029740,-0.00013835,0.00095598,0.00098352,0.00048143,-0.001677
 52,-0.00162465,0.00306888,-0.00033770,0.00026260,0.00000230,0.00020285
 ,0.00067117,0.00004545,0.00017906,0.00021324,-0.00006828,-0.00006868,-
 0.00005940,0.00003482,-0.00004140,-0.00003906,-0.00002722,-0.01316400,
 0.00476846,-0.00222177,0.00018050,0.00025940,-0.00100087,-0.29996498,0
 .07715853,0.00418804,-0.00000725,-0.00001348,0.00000279,0.00000804,0.0
 0000110,0.00000092,-0.00002891,-0.00000025,-0.00002912,0.00000828,0.00
 000544,0.00000141,0.00000664,0.00000178,0.00000173,-0.00002343,-0.0000
 0261,0.00002112,0.00000746,0.00000485,-0.00000152,0.00040504,-0.000291
 30,-0.00032891,0.00028506,-0.00022560,0.00003730,0.00070947,-0.0000226
 2,0.00019796,-0.00000221,-0.00002345,0.00002500,-0.01212964,0.00404849
 ,0.00106690,0.32421356,-0.00066631,-0.00180065,0.00034450,-0.00003619,
 -0.00012977,0.00005159,-0.00041350,0.00009902,-0.00017261,0.00013891,0
 .00032343,0.00023751,-0.00290798,0.00046706,0.00291454,-0.00003077,0.0
 0005314,-0.00001560,0.00111501,0.00048168,-0.00058266,0.00003745,0.000
 08405,-0.00004609,-0.00002663,-0.00002511,0.00000763,-0.00000870,-0.00
 001018,-0.00000703,-0.01146913,0.00214688,-0.00041473,0.00015301,0.000
 21309,-0.00035023,0.07875013,-0.06985202,-0.00096954,0.00000241,-0.000
 00097,0.00000123,0.00000202,0.00000047,0.00000086,-0.00001049,0.000001
 43,-0.00001038,0.00000127,0.00000216,0.00000072,0.00000151,0.00000077,
 0.00000033,-0.00000612,0.00000022,0.00000493,0.00000050,0.00000110,-0.
 00000002,0.00002310,0.00048289,-0.00084987,-0.00008243,-0.00010652,-0.
 00010011,-0.00001946,0.00021491,-0.00006010,0.00007011,0.00002547,0.00
 006548,-0.01218211,0.00294762,0.00113844,-0.08363707,0.07155668,0.0000
 4895,0.00164820,-0.00005037,-0.00017397,0.00047903,0.00014243,0.001136
 72,-0.00020726,0.00022182,-0.00030384,-0.00086635,-0.00061688,0.004337
 36,0.00236027,-0.00442800,0.00030561,-0.00024670,-0.00000524,-0.000283
 04,-0.00071541,-0.00004857,-0.00017629,-0.00023591,0.00011254,0.000078
 32,0.00006675,-0.00003784,0.00003380,0.00003262,0.00002677,0.02512677,
 -0.00972518,0.00010282,0.00007418,-0.00051117,0.00103793,0.00103705,-0
 .00023951,-0.04723241,0.00000592,0.00001506,-0.00000520,-0.00000831,0.
 00000037,0.00000081,0.00003057,-0.00000006,0.00003376,-0.00000755,-0.0
 0000588,-0.00000297,-0.00000621,-0.00000182,-0.00000153,0.00002146,0.0
 0000270,-0.00001908,-0.00000729,-0.00000449,0.00000090,-0.00047135,-0.
 00003241,0.00116508,-0.00014228,0.00017766,0.00036046,-0.00019424,0.00
 007051,-0.00051832,-0.00000063,-0.00003375,-0.00004505,-0.02475894,0.0
 0895518,0.00136181,-0.00499073,-0.00093113,0.04973174,-0.00118364,-0.0
 0135650,0.00051256,-0.00029992,0.00015585,0.00018325,0.00033713,-0.000
 06549,-0.00005791,-0.00075172,-0.00035389,-0.00008876,0.00142359,0.000
 72826,-0.00103320,0.00023577,-0.00010660,-0.00002104,0.00069670,0.0008
 8750,-0.00025851,-0.00008886,-0.00004971,0.00001545,0.00002186,0.00001
 698,-0.00001060,0.00001621,0.00001205,0.00001065,-0.00079645,-0.017240
 48,0.00117664,-0.00000387,0.00061024,-0.00094496,-0.04714698,0.0104342
 1,-0.00150278,0.00001339,0.00001263,0.00000245,-0.00000315,-0.00000005
 ,-0.00000037,0.00000966,0.00000140,0.00000915,-0.00000475,-0.00000110,
 -0.00000082,-0.00000175,0.00000020,-0.00000064,0.00000841,0.00000222,-
 0.00000836,-0.00000586,-0.00000120,0.00000234,-0.00051367,-0.00083618,
 0.00284172,-0.00012335,0.00002452,-0.00007726,-0.00000215,0.00007000,0
 .00000230,0.00031218,0.00027210,0.00013144,0.00007126,-0.01543029,0.00
 145407,0.00063814,0.03120148,-0.00071203,0.04714179,-0.00080888,-0.001
 26007,0.00013241,-0.00010675,-0.00004543,0.00021222,-0.00015769,0.0001
 7793,-0.00003257,-0.00009918,-0.00004587,-0.00004632,-0.00002392,0.000
 86907,-0.00002087,0.00002250,0.00002773,-0.00003836,0.00173818,-0.0000
 4081,-0.00104840,0.00001316,0.00004365,-0.00001114,-0.00000722,-0.0000
 0667,0.00000202,-0.00000260,-0.00000311,-0.00000207,0.00063653,-0.0117
 4198,0.00041006,0.00000769,0.00085551,-0.00066507,0.00824934,-0.323224
 98,0.00680045,0.00001052,0.00000224,-0.00000063,0.00000045,-0.00000006
 ,0.00000013,-0.00000275,0.00000073,-0.00000303,-0.00000063,0.00000012,
 -0.00000045,0.00000074,0.00000009,-0.00000035,-0.00000221,0.00000011,0
 .00000178,-0.00000125,0.00000091,0.00000086,-0.00121852,0.00105206,0.0
 0172257,-0.00008046,0.00024876,0.00001906,-0.00002306,0.00002595,0.000
 03484,0.00026968,0.00024186,0.00058321,0.00105745,-0.00942659,0.000882
 02,-0.00048299,-0.00717686,-0.00005131,-0.00898815,0.34942571,0.000914
 80,0.00148860,0.00002319,0.00020091,-0.00019013,-0.00014538,-0.0001276
 9,-0.00005112,0.00002564,0.00053346,0.00022365,0.00010688,-0.00096281,
 -0.00151866,0.00112147,-0.00004097,0.00001652,0.00001764,-0.00074794,-
 0.00083048,0.00011600,0.00002143,-0.00000455,-0.00001482,-0.00000519,-
 0.00000581,0.00000339,-0.00000111,-0.00000303,-0.00000128,-0.00215183,
 0.03111912,-0.00204323,-0.00012997,0.00076367,0.00208042,-0.00082080,0
 .00380183,-0.04794814,-0.00001075,-0.00000915,-0.00000037,-0.00000054,
 -0.00000094,-0.00000023,-0.00000150,0.00000022,-0.00000293,0.00000088,
 -0.00000015,0.00000108,0.00000003,0.00000048,0.00000024,-0.00000149,-0
 .00000050,0.00000094,0.00000248,0.00000003,-0.00000211,0.00273169,0.00
 142336,-0.00437928,0.00009330,-0.00033690,0.00021862,-0.00002537,-0.00
 006449,-0.00004559,-0.00012865,-0.00057694,-0.00030270,0.00238151,-0.0
 2610589,0.00149942,-0.00009911,-0.00025767,-0.00128741,-0.00162479,-0.
 00888106,0.05095856\\0.00000097,-0.00001481,-0.00000410,0.00000037,-0.
 00000691,-0.00000404,-0.00000609,0.00000699,0.00000148,-0.00000134,-0.
 00000441,0.00000364,0.00000142,0.00001121,-0.00000246,-0.00000326,0.00
 000184,0.00000202,0.00000320,0.00000740,0.00000248,0.00000135,0.000002
 06,0.00000159,-0.00000169,-0.00000150,-0.00000116,-0.00000156,-0.00000
 151,0.00000028,0.00000342,0.00000026,0.00000049,0.00000047,-0.00000364
 ,0.,0.00000563,0.00000116,0.00000159,-0.00000107,-0.00000013,-0.000000
 16,-0.00000007,-0.00000038,0.00000004,-0.00000053,0.00000057,-0.000000
 17,0.00000087,-0.00000003,0.00000029,0.00000001,0.00000025,-0.00000011
 ,-0.00000019,-0.00000014,0.00000056,-0.00000022,-0.00000029,-0.0000004
 4,0.00000065,-0.00000087,-0.00000139,0.00000048,0.00000050,-0.00000038
 ,-0.00000039,0.00000108,0.00000140,0.00000043,0.00000162,-0.00000092,-
 0.00000004,0.00000103,-0.00000046,-0.00000233,-0.00000084,-0.00000098,
 -0.00000050,-0.00000051,0.00000089\\\@


 IF THERE IS ONE WAY BETTER THAN ANOTHER IT IS THE WAY OF NATURE.

                          -- ARISTOTLE
 Job cpu time:       0 days 15 hours 35 minutes  8.9 seconds.
 File lengths (MBytes):  RWF=    406 Int=      0 D2E=      0 Chk=     18 Scr=      1
 Normal termination of Gaussian 09 at Mon Jun 21 00:48:25 2021.
