 Entering Gaussian System, Link 0=g09
 Input=NHC25.gjf
 Output=NHC25.log
 Initial command:
 /usr/local/gqt/g09/l1.exe "/usr/local/gqt/lixogaussian/Gau-13129.inp" -scrdir="/usr/local/gqt/lixogaussian/"
 Entering Link 1 = /usr/local/gqt/g09/l1.exe PID=     13131.
  
 Copyright (c) 1988,1990,1992,1993,1995,1998,2003,2009,2013,
            Gaussian, Inc.  All Rights Reserved.
  
 This is part of the Gaussian(R) 09 program.  It is based on
 the Gaussian(R) 03 system (copyright 2003, Gaussian, Inc.),
 the Gaussian(R) 98 system (copyright 1998, Gaussian, Inc.),
 the Gaussian(R) 94 system (copyright 1995, Gaussian, Inc.),
 the Gaussian 92(TM) system (copyright 1992, Gaussian, Inc.),
 the Gaussian 90(TM) system (copyright 1990, Gaussian, Inc.),
 the Gaussian 88(TM) system (copyright 1988, Gaussian, Inc.),
 the Gaussian 86(TM) system (copyright 1986, Carnegie Mellon
 University), and the Gaussian 82(TM) system (copyright 1983,
 Carnegie Mellon University). Gaussian is a federally registered
 trademark of Gaussian, Inc.
  
 This software contains proprietary and confidential information,
 including trade secrets, belonging to Gaussian, Inc.
  
 This software is provided under written license and may be
 used, copied, transmitted, or stored only in accord with that
 written license.
  
 The following legend is applicable only to US Government
 contracts under FAR:
  
                    RESTRICTED RIGHTS LEGEND
  
 Use, reproduction and disclosure by the US Government is
 subject to restrictions as set forth in subparagraphs (a)
 and (c) of the Commercial Computer Software - Restricted
 Rights clause in FAR 52.227-19.
  
 Gaussian, Inc.
 340 Quinnipiac St., Bldg. 40, Wallingford CT 06492
  
  
 ---------------------------------------------------------------
 Warning -- This program may not be used in any manner that
 competes with the business of Gaussian, Inc. or will provide
 assistance to any competitor of Gaussian, Inc.  The licensee
 of this program is prohibited from giving any competitor of
 Gaussian, Inc. access to this program.  By using this program,
 the user acknowledges that Gaussian, Inc. is engaged in the
 business of creating and licensing software in the field of
 computational chemistry and represents and warrants to the
 licensee that it is not a competitor of Gaussian, Inc. and that
 it will not use this program in any manner prohibited above.
 ---------------------------------------------------------------
  

 Cite this work as:
 Gaussian 09, Revision D.01,
 M. J. Frisch, G. W. Trucks, H. B. Schlegel, G. E. Scuseria, 
 M. A. Robb, J. R. Cheeseman, G. Scalmani, V. Barone, B. Mennucci, 
 G. A. Petersson, H. Nakatsuji, M. Caricato, X. Li, H. P. Hratchian, 
 A. F. Izmaylov, J. Bloino, G. Zheng, J. L. Sonnenberg, M. Hada, 
 M. Ehara, K. Toyota, R. Fukuda, J. Hasegawa, M. Ishida, T. Nakajima, 
 Y. Honda, O. Kitao, H. Nakai, T. Vreven, J. A. Montgomery, Jr., 
 J. E. Peralta, F. Ogliaro, M. Bearpark, J. J. Heyd, E. Brothers, 
 K. N. Kudin, V. N. Staroverov, T. Keith, R. Kobayashi, J. Normand, 
 K. Raghavachari, A. Rendell, J. C. Burant, S. S. Iyengar, J. Tomasi, 
 M. Cossi, N. Rega, J. M. Millam, M. Klene, J. E. Knox, J. B. Cross, 
 V. Bakken, C. Adamo, J. Jaramillo, R. Gomperts, R. E. Stratmann, 
 O. Yazyev, A. J. Austin, R. Cammi, C. Pomelli, J. W. Ochterski, 
 R. L. Martin, K. Morokuma, V. G. Zakrzewski, G. A. Voth, 
 P. Salvador, J. J. Dannenberg, S. Dapprich, A. D. Daniels, 
 O. Farkas, J. B. Foresman, J. V. Ortiz, J. Cioslowski, 
 and D. J. Fox, Gaussian, Inc., Wallingford CT, 2013.
 
 ******************************************
 Gaussian 09:  ES64L-G09RevD.01 24-Apr-2013
                 9-Jun-2021 
 ******************************************
 %nprocshared=16
 Will use up to   16 processors via shared memory.
 %mem=25GB
 %chk=NHC25.chk
 ----------------------------------------------------------
 #p opt freq n12sx/6-311+g(d,p) scrf=(iefpcm,solvent=water)
 ----------------------------------------------------------
 1/14=-1,18=20,19=15,26=3,38=1/1,3;
 2/9=110,12=2,17=6,18=5,40=1/2;
 3/5=4,6=6,7=111,11=2,16=1,25=1,30=1,70=2201,71=1,72=1,74=-69/1,2,3;
 4//1;
 5/5=2,38=5,53=1/2;
 6/7=2,8=2,9=2,10=2,28=1/1;
 7//1,2,3,16;
 1/14=-1,18=20,19=15,26=3/3(2);
 2/9=110/2;
 99//99;
 2/9=110/2;
 3/5=4,6=6,7=111,11=2,16=1,25=1,30=1,70=2205,71=1,72=1,74=-69/1,2,3;
 4/5=5,16=3,69=1/1;
 5/5=2,38=5,53=1/2;
 7//1,2,3,16;
 1/14=-1,18=20,19=15,26=3/3(-5);
 2/9=110/2;
 6/7=2,8=2,9=2,10=2,19=2,28=1/1;
 99/9=1/99;
 Leave Link    1 at Wed Jun  9 15:07:32 2021, MaxMem=  3355443200 cpu:         0.7
 (Enter /usr/local/gqt/g09/l101.exe)
 -----
 TITLE
 -----
 Symbolic Z-matrix:
 Charge =  0 Multiplicity = 1
 C                    0    -4.70879   0.44697  -1.31386 
 C                    0    -4.6197   -1.06768  -1.18182 
 C                    0    -3.87342  -1.42269   0.09746 
 N                    0    -2.54237  -0.88134   0.04183 
 C                    0    -2.65272   0.55481   0.08122 
 C                    0    -3.31486   1.0495   -1.19799 
 C                    0    -6.02367  -1.65563  -1.12969 
 C                    0    -3.87348  -1.63894  -2.38029 
 C                    0    -1.26333   1.16676   0.20213 
 C                    0    -3.49632   0.96596   1.28073 
 C                    0    -1.8498   -1.29939   1.2307 
 H                    0    -5.14404   0.70765  -2.30451 
 H                    0    -5.35686   0.85256  -0.50499 
 H                    0    -3.39205   2.15947  -1.17001 
 H                    0    -2.70332   0.74161  -2.07548 
 H                    0    -5.95954  -2.76258  -1.03319 
 H                    0    -6.56888  -1.39624  -2.06469 
 H                    0    -6.56832  -1.23794  -0.25353 
 H                    0    -3.57471  -0.81073  -3.06116 
 H                    0    -2.96413  -2.17594  -2.0289 
 H                    0    -4.53593  -2.34725  -2.92638 
 H                    0    -1.34737   2.27617   0.23265 
 H                    0    -0.77974   0.806     1.13742 
 H                    0    -0.64782   0.86549  -0.67488 
 H                    0    -3.82214   0.05731   1.83477 
 H                    0    -2.8917    1.61364   1.95432 
 H                    0    -4.39117   1.52713   0.92988 
 H                    0    -0.81283  -0.8953    1.2181 
 H                    0    -1.81373  -2.41122   1.26682 
 H                    0    -2.38655  -0.91541   2.12693 
 
 NAtoms=     30 NQM=       30 NQMF=       0 NMMI=      0 NMMIF=      0
                NMic=       0 NMicF=      0.
                    Isotopes and Nuclear Properties:
 (Nuclear quadrupole moments (NQMom) in fm**2, nuclear magnetic moments (NMagM)
  in nuclear magnetons)

  Atom         1           2           3           4           5           6           7           8           9          10
 IAtWgt=          12          12          12          14          12          12          12          12          12          12
 AtmWgt=  12.0000000  12.0000000  12.0000000  14.0030740  12.0000000  12.0000000  12.0000000  12.0000000  12.0000000  12.0000000
 NucSpn=           0           0           0           2           0           0           0           0           0           0
 AtZEff=   0.0000000   0.0000000   0.0000000   0.0000000   0.0000000   0.0000000   0.0000000   0.0000000   0.0000000   0.0000000
 NQMom=    0.0000000   0.0000000   0.0000000   2.0440000   0.0000000   0.0000000   0.0000000   0.0000000   0.0000000   0.0000000
 NMagM=    0.0000000   0.0000000   0.0000000   0.4037610   0.0000000   0.0000000   0.0000000   0.0000000   0.0000000   0.0000000
 AtZNuc=   6.0000000   6.0000000   6.0000000   7.0000000   6.0000000   6.0000000   6.0000000   6.0000000   6.0000000   6.0000000

  Atom        11          12          13          14          15          16          17          18          19          20
 IAtWgt=          12           1           1           1           1           1           1           1           1           1
 AtmWgt=  12.0000000   1.0078250   1.0078250   1.0078250   1.0078250   1.0078250   1.0078250   1.0078250   1.0078250   1.0078250
 NucSpn=           0           1           1           1           1           1           1           1           1           1
 AtZEff=   0.0000000   0.0000000   0.0000000   0.0000000   0.0000000   0.0000000   0.0000000   0.0000000   0.0000000   0.0000000
 NQMom=    0.0000000   0.0000000   0.0000000   0.0000000   0.0000000   0.0000000   0.0000000   0.0000000   0.0000000   0.0000000
 NMagM=    0.0000000   2.7928460   2.7928460   2.7928460   2.7928460   2.7928460   2.7928460   2.7928460   2.7928460   2.7928460
 AtZNuc=   6.0000000   1.0000000   1.0000000   1.0000000   1.0000000   1.0000000   1.0000000   1.0000000   1.0000000   1.0000000

  Atom        21          22          23          24          25          26          27          28          29          30
 IAtWgt=           1           1           1           1           1           1           1           1           1           1
 AtmWgt=   1.0078250   1.0078250   1.0078250   1.0078250   1.0078250   1.0078250   1.0078250   1.0078250   1.0078250   1.0078250
 NucSpn=           1           1           1           1           1           1           1           1           1           1
 AtZEff=   0.0000000   0.0000000   0.0000000   0.0000000   0.0000000   0.0000000   0.0000000   0.0000000   0.0000000   0.0000000
 NQMom=    0.0000000   0.0000000   0.0000000   0.0000000   0.0000000   0.0000000   0.0000000   0.0000000   0.0000000   0.0000000
 NMagM=    2.7928460   2.7928460   2.7928460   2.7928460   2.7928460   2.7928460   2.7928460   2.7928460   2.7928460   2.7928460
 AtZNuc=   1.0000000   1.0000000   1.0000000   1.0000000   1.0000000   1.0000000   1.0000000   1.0000000   1.0000000   1.0000000
 Leave Link  101 at Wed Jun  9 15:07:32 2021, MaxMem=  3355443200 cpu:         6.9
 (Enter /usr/local/gqt/g09/l103.exe)

 GradGradGradGradGradGradGradGradGradGradGradGradGradGradGradGradGradGrad
 Berny optimization.
 Initialization pass.
                           ----------------------------
                           !    Initial Parameters    !
                           ! (Angstroms and Degrees)  !
 --------------------------                            --------------------------
 ! Name  Definition              Value          Derivative Info.                !
 --------------------------------------------------------------------------------
 ! R1    R(1,2)                  1.523          estimate D2E/DX2                !
 ! R2    R(1,6)                  1.523          estimate D2E/DX2                !
 ! R3    R(1,12)                 1.113          estimate D2E/DX2                !
 ! R4    R(1,13)                 1.113          estimate D2E/DX2                !
 ! R5    R(2,3)                  1.523          estimate D2E/DX2                !
 ! R6    R(2,7)                  1.523          estimate D2E/DX2                !
 ! R7    R(2,8)                  1.523          estimate D2E/DX2                !
 ! R8    R(3,4)                  1.438          estimate D2E/DX2                !
 ! R9    R(4,5)                  1.4409         estimate D2E/DX2                !
 ! R10   R(4,11)                 1.438          estimate D2E/DX2                !
 ! R11   R(5,6)                  1.523          estimate D2E/DX2                !
 ! R12   R(5,9)                  1.523          estimate D2E/DX2                !
 ! R13   R(5,10)                 1.523          estimate D2E/DX2                !
 ! R14   R(6,14)                 1.113          estimate D2E/DX2                !
 ! R15   R(6,15)                 1.113          estimate D2E/DX2                !
 ! R16   R(7,16)                 1.113          estimate D2E/DX2                !
 ! R17   R(7,17)                 1.113          estimate D2E/DX2                !
 ! R18   R(7,18)                 1.113          estimate D2E/DX2                !
 ! R19   R(8,19)                 1.113          estimate D2E/DX2                !
 ! R20   R(8,20)                 1.113          estimate D2E/DX2                !
 ! R21   R(8,21)                 1.113          estimate D2E/DX2                !
 ! R22   R(9,22)                 1.113          estimate D2E/DX2                !
 ! R23   R(9,23)                 1.113          estimate D2E/DX2                !
 ! R24   R(9,24)                 1.113          estimate D2E/DX2                !
 ! R25   R(10,25)                1.113          estimate D2E/DX2                !
 ! R26   R(10,26)                1.113          estimate D2E/DX2                !
 ! R27   R(10,27)                1.113          estimate D2E/DX2                !
 ! R28   R(11,28)                1.113          estimate D2E/DX2                !
 ! R29   R(11,29)                1.113          estimate D2E/DX2                !
 ! R30   R(11,30)                1.113          estimate D2E/DX2                !
 ! A1    A(2,1,6)              109.47           estimate D2E/DX2                !
 ! A2    A(2,1,12)             109.4493         estimate D2E/DX2                !
 ! A3    A(2,1,13)             109.4794         estimate D2E/DX2                !
 ! A4    A(6,1,12)             109.4493         estimate D2E/DX2                !
 ! A5    A(6,1,13)             109.4794         estimate D2E/DX2                !
 ! A6    A(12,1,13)            109.5            estimate D2E/DX2                !
 ! A7    A(1,2,3)              109.47           estimate D2E/DX2                !
 ! A8    A(1,2,7)              109.4493         estimate D2E/DX2                !
 ! A9    A(1,2,8)              109.4794         estimate D2E/DX2                !
 ! A10   A(3,2,7)              109.4493         estimate D2E/DX2                !
 ! A11   A(3,2,8)              109.4793         estimate D2E/DX2                !
 ! A12   A(7,2,8)              109.5            estimate D2E/DX2                !
 ! A13   A(2,3,4)              109.47           estimate D2E/DX2                !
 ! A14   A(3,4,5)              107.6539         estimate D2E/DX2                !
 ! A15   A(3,4,11)             107.7202         estimate D2E/DX2                !
 ! A16   A(5,4,11)             107.7            estimate D2E/DX2                !
 ! A17   A(4,5,6)              109.5161         estimate D2E/DX2                !
 ! A18   A(4,5,9)              109.4379         estimate D2E/DX2                !
 ! A19   A(4,5,10)             109.4525         estimate D2E/DX2                !
 ! A20   A(6,5,9)              109.4378         estimate D2E/DX2                !
 ! A21   A(6,5,10)             109.4525         estimate D2E/DX2                !
 ! A22   A(9,5,10)             109.5307         estimate D2E/DX2                !
 ! A23   A(1,6,5)              109.47           estimate D2E/DX2                !
 ! A24   A(1,6,14)             109.4493         estimate D2E/DX2                !
 ! A25   A(1,6,15)             109.4793         estimate D2E/DX2                !
 ! A26   A(5,6,14)             109.4493         estimate D2E/DX2                !
 ! A27   A(5,6,15)             109.4794         estimate D2E/DX2                !
 ! A28   A(14,6,15)            109.5            estimate D2E/DX2                !
 ! A29   A(2,7,16)             109.5            estimate D2E/DX2                !
 ! A30   A(2,7,17)             109.4418         estimate D2E/DX2                !
 ! A31   A(2,7,18)             109.4619         estimate D2E/DX2                !
 ! A32   A(16,7,17)            109.4418         estimate D2E/DX2                !
 ! A33   A(16,7,18)            109.4619         estimate D2E/DX2                !
 ! A34   A(17,7,18)            109.5199         estimate D2E/DX2                !
 ! A35   A(2,8,19)             109.5            estimate D2E/DX2                !
 ! A36   A(2,8,20)             109.4418         estimate D2E/DX2                !
 ! A37   A(2,8,21)             109.4618         estimate D2E/DX2                !
 ! A38   A(19,8,20)            109.4419         estimate D2E/DX2                !
 ! A39   A(19,8,21)            109.4619         estimate D2E/DX2                !
 ! A40   A(20,8,21)            109.52           estimate D2E/DX2                !
 ! A41   A(5,9,22)             109.5            estimate D2E/DX2                !
 ! A42   A(5,9,23)             109.4418         estimate D2E/DX2                !
 ! A43   A(5,9,24)             109.4619         estimate D2E/DX2                !
 ! A44   A(22,9,23)            109.4418         estimate D2E/DX2                !
 ! A45   A(22,9,24)            109.4618         estimate D2E/DX2                !
 ! A46   A(23,9,24)            109.52           estimate D2E/DX2                !
 ! A47   A(5,10,25)            109.5            estimate D2E/DX2                !
 ! A48   A(5,10,26)            109.4419         estimate D2E/DX2                !
 ! A49   A(5,10,27)            109.4618         estimate D2E/DX2                !
 ! A50   A(25,10,26)           109.4419         estimate D2E/DX2                !
 ! A51   A(25,10,27)           109.4618         estimate D2E/DX2                !
 ! A52   A(26,10,27)           109.52           estimate D2E/DX2                !
 ! A53   A(4,11,28)            109.5            estimate D2E/DX2                !
 ! A54   A(4,11,29)            109.4418         estimate D2E/DX2                !
 ! A55   A(4,11,30)            109.4618         estimate D2E/DX2                !
 ! A56   A(28,11,29)           109.4419         estimate D2E/DX2                !
 ! A57   A(28,11,30)           109.4618         estimate D2E/DX2                !
 ! A58   A(29,11,30)           109.52           estimate D2E/DX2                !
 ! D1    D(6,1,2,3)             53.2969         estimate D2E/DX2                !
 ! D2    D(6,1,2,7)            173.2559         estimate D2E/DX2                !
 ! D3    D(6,1,2,8)            -66.7173         estimate D2E/DX2                !
 ! D4    D(12,1,2,3)           173.2559         estimate D2E/DX2                !
 ! D5    D(12,1,2,7)           -66.7851         estimate D2E/DX2                !
 ! D6    D(12,1,2,8)            53.2418         estimate D2E/DX2                !
 ! D7    D(13,1,2,3)           -66.7173         estimate D2E/DX2                !
 ! D8    D(13,1,2,7)            53.2417         estimate D2E/DX2                !
 ! D9    D(13,1,2,8)           173.2686         estimate D2E/DX2                !
 ! D10   D(2,1,6,5)            -53.207          estimate D2E/DX2                !
 ! D11   D(2,1,6,14)          -173.166          estimate D2E/DX2                !
 ! D12   D(2,1,6,15)            66.8072         estimate D2E/DX2                !
 ! D13   D(12,1,6,5)          -173.166          estimate D2E/DX2                !
 ! D14   D(12,1,6,14)           66.8749         estimate D2E/DX2                !
 ! D15   D(12,1,6,15)          -53.1519         estimate D2E/DX2                !
 ! D16   D(13,1,6,5)            66.8072         estimate D2E/DX2                !
 ! D17   D(13,1,6,14)          -53.1518         estimate D2E/DX2                !
 ! D18   D(13,1,6,15)         -173.1786         estimate D2E/DX2                !
 ! D19   D(1,2,3,4)            -60.7231         estimate D2E/DX2                !
 ! D20   D(7,2,3,4)            179.3178         estimate D2E/DX2                !
 ! D21   D(8,2,3,4)             59.2911         estimate D2E/DX2                !
 ! D22   D(1,2,7,16)           180.0            estimate D2E/DX2                !
 ! D23   D(1,2,7,17)            60.0364         estimate D2E/DX2                !
 ! D24   D(1,2,7,18)           -59.9996         estimate D2E/DX2                !
 ! D25   D(3,2,7,16)           -60.0283         estimate D2E/DX2                !
 ! D26   D(3,2,7,17)          -179.9919         estimate D2E/DX2                !
 ! D27   D(3,2,7,18)            59.9721         estimate D2E/DX2                !
 ! D28   D(8,2,7,16)            59.9858         estimate D2E/DX2                !
 ! D29   D(8,2,7,17)           -59.9778         estimate D2E/DX2                !
 ! D30   D(8,2,7,18)           179.9862         estimate D2E/DX2                !
 ! D31   D(1,2,8,19)             0.0            estimate D2E/DX2                !
 ! D32   D(1,2,8,20)           119.9636         estimate D2E/DX2                !
 ! D33   D(1,2,8,21)          -120.0004         estimate D2E/DX2                !
 ! D34   D(3,2,8,19)          -120.0085         estimate D2E/DX2                !
 ! D35   D(3,2,8,20)            -0.0448         estimate D2E/DX2                !
 ! D36   D(3,2,8,21)           119.9911         estimate D2E/DX2                !
 ! D37   D(7,2,8,19)           119.9958         estimate D2E/DX2                !
 ! D38   D(7,2,8,20)          -120.0405         estimate D2E/DX2                !
 ! D39   D(7,2,8,21)            -0.0046         estimate D2E/DX2                !
 ! D40   D(2,3,4,5)             67.2122         estimate D2E/DX2                !
 ! D41   D(2,3,4,11)          -176.898          estimate D2E/DX2                !
 ! D42   D(3,4,5,6)            -67.1373         estimate D2E/DX2                !
 ! D43   D(3,4,5,9)            172.8966         estimate D2E/DX2                !
 ! D44   D(3,4,5,10)            52.8557         estimate D2E/DX2                !
 ! D45   D(11,4,5,6)           176.9596         estimate D2E/DX2                !
 ! D46   D(11,4,5,9)            56.9935         estimate D2E/DX2                !
 ! D47   D(11,4,5,10)          -63.0474         estimate D2E/DX2                !
 ! D48   D(3,4,11,28)         -180.0            estimate D2E/DX2                !
 ! D49   D(3,4,11,29)           60.0363         estimate D2E/DX2                !
 ! D50   D(3,4,11,30)          -59.9996         estimate D2E/DX2                !
 ! D51   D(5,4,11,28)          -64.1405         estimate D2E/DX2                !
 ! D52   D(5,4,11,29)          175.8958         estimate D2E/DX2                !
 ! D53   D(5,4,11,30)           55.8599         estimate D2E/DX2                !
 ! D54   D(4,5,6,1)             60.4961         estimate D2E/DX2                !
 ! D55   D(4,5,6,14)          -179.5449         estimate D2E/DX2                !
 ! D56   D(4,5,6,15)           -59.5181         estimate D2E/DX2                !
 ! D57   D(9,5,6,1)           -179.5378         estimate D2E/DX2                !
 ! D58   D(9,5,6,14)           -59.5788         estimate D2E/DX2                !
 ! D59   D(9,5,6,15)            60.4481         estimate D2E/DX2                !
 ! D60   D(10,5,6,1)           -59.4969         estimate D2E/DX2                !
 ! D61   D(10,5,6,14)           60.4621         estimate D2E/DX2                !
 ! D62   D(10,5,6,15)         -179.5111         estimate D2E/DX2                !
 ! D63   D(4,5,9,22)           180.0            estimate D2E/DX2                !
 ! D64   D(4,5,9,23)           -60.0364         estimate D2E/DX2                !
 ! D65   D(4,5,9,24)            59.9996         estimate D2E/DX2                !
 ! D66   D(6,5,9,22)            59.9859         estimate D2E/DX2                !
 ! D67   D(6,5,9,23)           179.9496         estimate D2E/DX2                !
 ! D68   D(6,5,9,24)           -60.0144         estimate D2E/DX2                !
 ! D69   D(10,5,9,22)          -60.007          estimate D2E/DX2                !
 ! D70   D(10,5,9,23)           59.9566         estimate D2E/DX2                !
 ! D71   D(10,5,9,24)          179.9926         estimate D2E/DX2                !
 ! D72   D(4,5,10,25)            0.0            estimate D2E/DX2                !
 ! D73   D(4,5,10,26)          119.9637         estimate D2E/DX2                !
 ! D74   D(4,5,10,27)         -120.0004         estimate D2E/DX2                !
 ! D75   D(6,5,10,25)          120.032          estimate D2E/DX2                !
 ! D76   D(6,5,10,26)         -120.0043         estimate D2E/DX2                !
 ! D77   D(6,5,10,27)            0.0316         estimate D2E/DX2                !
 ! D78   D(9,5,10,25)         -119.984          estimate D2E/DX2                !
 ! D79   D(9,5,10,26)           -0.0204         estimate D2E/DX2                !
 ! D80   D(9,5,10,27)          120.0156         estimate D2E/DX2                !
 --------------------------------------------------------------------------------
 Trust Radius=3.00D-01 FncErr=1.00D-07 GrdErr=1.00D-06
 Number of steps in this run=    178 maximum allowed number of steps=    180.
 GradGradGradGradGradGradGradGradGradGradGradGradGradGradGradGradGradGrad

 Leave Link  103 at Wed Jun  9 15:07:32 2021, MaxMem=  3355443200 cpu:         0.1
 (Enter /usr/local/gqt/g09/l202.exe)
                          Input orientation:                          
 ---------------------------------------------------------------------
 Center     Atomic      Atomic             Coordinates (Angstroms)
 Number     Number       Type             X           Y           Z
 ---------------------------------------------------------------------
      1          6           0       -4.708794    0.446971   -1.313862
      2          6           0       -4.619702   -1.067676   -1.181818
      3          6           0       -3.873418   -1.422690    0.097461
      4          7           0       -2.542370   -0.881341    0.041826
      5          6           0       -2.652723    0.554805    0.081223
      6          6           0       -3.314856    1.049500   -1.197990
      7          6           0       -6.023669   -1.655628   -1.129689
      8          6           0       -3.873479   -1.638935   -2.380293
      9          6           0       -1.263329    1.166763    0.202133
     10          6           0       -3.496319    0.965960    1.280734
     11          6           0       -1.849803   -1.299390    1.230704
     12          1           0       -5.144036    0.707650   -2.304508
     13          1           0       -5.356862    0.852563   -0.504991
     14          1           0       -3.392053    2.159467   -1.170014
     15          1           0       -2.703315    0.741606   -2.075479
     16          1           0       -5.959544   -2.762581   -1.033187
     17          1           0       -6.568883   -1.396239   -2.064691
     18          1           0       -6.568324   -1.237943   -0.253528
     19          1           0       -3.574714   -0.810731   -3.061165
     20          1           0       -2.964131   -2.175944   -2.028901
     21          1           0       -4.535930   -2.347253   -2.926382
     22          1           0       -1.347367    2.276166    0.232654
     23          1           0       -0.779738    0.806002    1.137419
     24          1           0       -0.647823    0.865486   -0.674881
     25          1           0       -3.822143    0.057305    1.834768
     26          1           0       -2.891699    1.613636    1.954320
     27          1           0       -4.391170    1.527132    0.929882
     28          1           0       -0.812826   -0.895301    1.218095
     29          1           0       -1.813728   -2.411219    1.266823
     30          1           0       -2.386550   -0.915406    2.126934
 ---------------------------------------------------------------------
                    Distance matrix (angstroms):
                    1          2          3          4          5
     1  C    0.000000
     2  C    1.523000   0.000000
     3  C    2.487030   1.523000   0.000000
     4  N    2.880225   2.418126   1.438000   0.000000
     5  C    2.487030   2.845474   2.323972   1.440918   0.000000
     6  C    1.523001   2.487030   2.846385   2.421162   1.523000
     7  C    2.486712   1.523000   2.486712   3.753853   4.208990
     8  C    2.487173   1.523000   2.487172   2.865739   3.515935
     9  C    3.832437   4.263013   3.678150   2.419995   1.523000
    10  C    2.910562   3.385532   2.692209   2.420213   1.523000
    11  C    4.206949   3.680529   2.322598   1.438000   2.324656
    12  H    1.113000   2.164981   3.452865   3.846926   3.452784
    13  H    1.113000   2.165368   2.782145   3.350641   2.782926
    14  H    2.164981   3.452783   3.830151   3.381868   2.164981
    15  H    2.165367   2.782925   3.282527   2.672609   2.165368
    16  H    3.456064   2.165634   2.724994   4.046207   4.814772
    17  H    2.724169   2.164885   3.455594   4.573329   4.873174
    18  H    2.724169   2.165142   2.723939   4.052494   4.319483
    19  H    2.433315   2.165633   3.231197   3.270974   3.548149
    20  H    3.230296   2.164884   2.432203   2.478263   3.465052
    21  H    3.230757   2.165142   3.230691   3.864381   4.584114
    22  H    4.127573   4.887759   4.481155   3.381464   2.165634
    23  H    4.644907   4.861569   3.952143   2.674756   2.164884
    24  H    4.132183   4.446338   4.029482   2.674768   2.165142
    25  H    3.294216   3.316847   2.282816   2.394476   2.165634
    26  H    3.917136   4.473342   3.692015   3.163001   2.164885
    27  H    2.510382   3.353287   3.108447   3.163455   2.165142
    28  H    4.836431   4.503510   3.301694   2.091680   2.603941
    29  H    4.817737   3.959096   2.566500   2.090948   3.302553
    30  H    4.368978   3.994746   2.566491   2.091200   2.533239
                    6          7          8          9         10
     6  C    0.000000
     7  C    3.828845   0.000000
     8  C    2.989579   2.487490   0.000000
     9  C    2.486535   5.692142   4.621012   0.000000
    10  C    2.486761   4.366962   4.508974   2.487960   0.000000
    11  C    3.682692   4.808276   4.153294   2.735657   2.800951
    12  H    2.164981   2.781912   2.669554   4.642620   3.954195
    13  H    2.165368   2.669438   3.453222   4.166024   2.581335
    14  H    1.113000   4.634866   4.015520   2.720242   2.727911
    15  H    1.113000   4.203094   2.670051   2.727973   3.455916
    16  H    4.642574   1.113000   2.725609   6.246615   5.032268
    17  H    4.161911   1.113000   2.724648   6.313190   5.119815
    18  H    4.087720   1.113000   3.456315   5.842363   4.080241
    19  H    2.645639   3.231382   1.113000   4.461177   4.692000
    20  H    3.349166   3.231112   1.113000   4.363935   4.594395
    21  H    4.002036   2.433068   1.113000   5.731128   5.455089
    22  H    2.724420   6.259615   5.341980   1.113000   2.726372
    23  H    3.455467   6.220789   5.284245   1.113000   2.725057
    24  H    2.724072   5.955047   4.425541   1.113000   3.456654
    25  H    3.231008   4.070487   4.543854   3.231706   1.113000
    26  H    3.230227   5.477995   5.507448   2.433402   1.112999
    27  H    2.431959   4.127572   4.609690   3.231544   1.113000
    28  H    3.984956   5.765681   4.782153   2.342486   3.266397
    29  H    4.506136   4.902835   4.259161   3.773388   3.773148
    30  H    3.972119   4.937829   4.800994   3.049904   2.342473
                   11         12         13         14         15
    11  C    0.000000
    12  H    5.232390   0.000000
    13  H    4.465759   1.817844   0.000000
    14  H    4.483935   2.542498   2.451679   0.000000
    15  H    3.978064   2.451678   3.085459   1.817844   0.000000
    16  H    4.914886   3.784681   3.702902   5.553133   4.895787
    17  H    5.756624   2.552264   2.993120   4.851365   4.417365
    18  H    4.946833   3.165509   2.429216   4.740363   4.709184
    19  H    4.651263   2.311013   3.532226   3.525889   2.034862
    20  H    3.554588   3.625336   4.149617   4.440337   2.929555
    21  H    5.059116   3.176311   4.095838   4.970293   3.691011
    22  H    3.746084   4.828264   4.318196   2.482305   3.085603
    23  H    2.363560   5.559103   4.863100   3.739025   3.745265
    24  H    3.124532   4.785032   4.712120   3.074141   2.490395
    25  H    2.468935   4.393627   2.908998   3.692259   4.124327
    26  H    3.177245   4.902188   3.564333   3.210880   4.127373
    27  H    3.812908   3.420473   1.856466   2.409906   3.535265
    28  H    1.113000   5.808405   5.164525   4.656939   4.135341
    29  H    1.113000   5.794195   5.132777   5.414837   4.680027
    30  H    1.113000   5.465868   4.344594   4.619063   4.528389
                   16         17         18         19         20
    16  H    0.000000
    17  H    1.817192   0.000000
    18  H    1.817416   1.818067   0.000000
    19  H    3.689150   3.209490   4.126383   0.000000
    20  H    3.210621   3.688287   4.125773   1.817192   0.000000
    21  H    2.404862   2.404129   3.536289   1.817416   1.818068
    22  H    6.947194   6.784437   6.312189   5.033811   5.248794
    23  H    6.654074   6.972630   6.294456   5.296586   4.867151
    24  H    6.442487   6.488908   6.297165   4.131676   4.055730
    25  H    4.554713   4.986296   3.685127   4.978440   4.544395
    26  H    6.122756   6.223623   5.150113   5.612411   5.498383
    27  H    4.971426   4.717626   3.712964   4.696878   4.950112
    28  H    5.919773   6.645285   5.950532   5.093844   4.100139
    29  H    4.754082   5.894122   5.127790   4.939040   3.498654
    30  H    5.115145   5.940777   4.822641   5.323445   4.381041
                   21         22         23         24         25
    21  H    0.000000
    22  H    6.443791   0.000000
    23  H    6.369182   1.817191   0.000000
    24  H    5.523434   1.817416   1.818068   0.000000
    25  H    5.381444   3.689801   3.209840   4.126476   0.000000
    26  H    6.497183   2.405835   2.404159   3.536581   1.817191
    27  H    5.468326   3.211217   3.688569   4.126219   1.817416
    28  H    5.757287   3.363782   1.703536   2.590551   3.216167
    29  H    4.999744   4.822715   3.381773   3.983258   3.232631
    30  H    5.675035   3.854132   2.554257   3.747655   1.758538
                   26         27         28         29         30
    26  H    0.000000
    27  H    1.818068   0.000000
    28  H    3.340435   4.330796   0.000000
    29  H    4.223048   4.718829   1.817192   0.000000
    30  H    2.584768   3.378968   1.817416   1.818068   0.000000
 Stoichiometry    C10H19N
 Framework group  C1[X(C10H19N)]
 Deg. of freedom    84
 Full point group                 C1      NOp   1
 Largest Abelian subgroup         C1      NOp   1
 Largest concise Abelian subgroup C1      NOp   1
                         Standard orientation:                         
 ---------------------------------------------------------------------
 Center     Atomic      Atomic             Coordinates (Angstroms)
 Number     Number       Type             X           Y           Z
 ---------------------------------------------------------------------
      1          6           0        1.101784   -1.316803    0.237111
      2          6           0        1.594251    0.106725    0.012222
      3          6           0        0.509426    1.091003    0.429212
      4          7           0       -0.667024    0.874074   -0.368754
      5          6           0       -1.202618   -0.416209   -0.015832
      6          6           0       -0.237842   -1.506919   -0.462024
      7          6           0        2.845677    0.348073    0.846017
      8          6           0        1.919876    0.304480   -1.462359
      9          6           0       -2.545492   -0.613734   -0.706630
     10          6           0       -1.390557   -0.491731    1.493640
     11          6           0       -1.637898    1.867247    0.003882
     12          1           0        1.842562   -2.035399   -0.179586
     13          1           0        0.980195   -1.499442    1.328270
     14          1           0       -0.656440   -2.503377   -0.196286
     15          1           0       -0.093287   -1.446527   -1.563943
     16          1           0        3.206315    1.388219    0.682292
     17          1           0        3.638420   -0.371193    0.541083
     18          1           0        2.606950    0.203640    1.923475
     19          1           0        1.718807   -0.639266   -2.017051
     20          1           0        1.284911    1.119708   -1.875871
     21          1           0        2.993344    0.577383   -1.571716
     22          1           0       -2.960168   -1.610164   -0.434710
     23          1           0       -3.250881    0.182785   -0.379903
     24          1           0       -2.406860   -0.558203   -1.809565
     25          1           0       -1.068545    0.467825    1.956597
     26          1           0       -2.464176   -0.672624    1.724699
     27          1           0       -0.776597   -1.325174    1.902534
     28          1           0       -2.563487    1.726158   -0.597905
     29          1           0       -1.222369    2.881798   -0.187924
     30          1           0       -1.879167    1.762543    1.085361
 ---------------------------------------------------------------------
 Rotational constants (GHZ):      1.8378615      0.9189065      0.8327209
 Leave Link  202 at Wed Jun  9 15:07:32 2021, MaxMem=  3355443200 cpu:         0.0
 (Enter /usr/local/gqt/g09/l301.exe)
 Standard basis: 6-311+G(d,p) (5D, 7F)
 Ernie: Thresh=  0.10000D-02 Tol=  0.10000D-05 Strict=F.
 There are   367 symmetry adapted cartesian basis functions of A   symmetry.
 There are   356 symmetry adapted basis functions of A   symmetry.
   356 basis functions,   548 primitive gaussians,   367 cartesian basis functions
    43 alpha electrons       43 beta electrons
       nuclear repulsion energy       701.9100906542 Hartrees.
 IExCor= 5547 DFT=T Ex+Corr=N12SX ExCW=0 ScaHFX=  0.250000
 ScaDFX=  1.000000  1.000000  1.000000  1.000000 ScalE2=  1.000000  1.000000
 IRadAn=      0 IRanWt=     -1 IRanGd=            0 ICorTp=0 IEmpDi=  4
  HFx wShort=  0.110000 wLong=  0.000000 cFull=  0.000000 cShort=  1.000000 cLong=  0.000000
  DFx wShort=  0.110000 wLong=  0.000000 cFull=  0.000000 cShort=  1.000000 cLong=  0.000000
 NAtoms=   30 NActive=   30 NUniq=   30 SFac= 1.00D+00 NAtFMM=   60 NAOKFM=F Big=F
 Integral buffers will be    131072 words long.
 Raffenetti 2 integral format.
 Two-electron integral symmetry is turned on.
 ------------------------------------------------------------------------------
 Polarizable Continuum Model (PCM)
 =================================
 Model                : PCM (using non-symmetric T matrix).
 Atomic radii         : UFF (Universal Force Field).
 Polarization charges : Total charges.
 Charge compensation  : None.
 Solution method      : On-the-fly selection.
 Cavity type          : Scaled VdW (van der Waals Surface) (Alpha=1.100).
 Cavity algorithm     : GePol (No added spheres)
                        Default sphere list used, NSphG=   30.
                        Lebedev-Laikov grids with approx.  5.0 points / Ang**2.
                        Smoothing algorithm: Karplus/York (Gamma=1.0000).
                        Polarization charges: spherical gaussians, with
                                              point-specific exponents (IZeta= 3).
                        Self-potential: point-specific (ISelfS= 7).
                        Self-field    : sphere-specific E.n sum rule (ISelfD= 2).
 1st derivatives      : Analytical E(r).r(x)/FMM algorithm (CHGder, D1EAlg=3).
                        Cavity 1st derivative terms included.
 Solvent              : Water, Eps=  78.355300 Eps(inf)=   1.777849
 ------------------------------------------------------------------------------
 GePol: Number of generator spheres                  =      30
 GePol: Total number of spheres                      =      30
 GePol: Number of exposed spheres                    =      30 (100.00%)
 GePol: Number of points                             =    1742
 GePol: Average weight of points                     =       0.14
 GePol: Minimum weight of points                     =   0.26D-08
 GePol: Maximum weight of points                     =    0.20577
 GePol: Number of points with low weight             =     108
 GePol: Fraction of low-weight points (<1% of avg)   =       6.20%
 GePol: Cavity surface area                          =    236.222 Ang**2
 GePol: Cavity volume                                =    258.783 Ang**3
 Leave Link  301 at Wed Jun  9 15:07:33 2021, MaxMem=  3355443200 cpu:         0.7
 (Enter /usr/local/gqt/g09/l302.exe)
 NPDir=0 NMtPBC=     1 NCelOv=     1 NCel=       1 NClECP=     1 NCelD=      1
         NCelK=      1 NCelE2=     1 NClLst=     1 CellRange=     0.0.
 One-electron integrals computed using PRISM.
 NBasis=   356 RedAO= T EigKep=  3.85D-06  NBF=   356
 NBsUse=   356 1.00D-06 EigRej= -1.00D+00 NBFU=   356
 Precomputing XC quadrature grid using
 IXCGrd= 4 IRadAn=           0 IRanWt=          -1 IRanGd=           0 AccXCQ= 0.00D+00.
 Generated NRdTot=       0 NPtTot=           0 NUsed=           0 NTot=          32
 NSgBfM=   367   367   367   367   367 MxSgAt=    30 MxSgA2=    30.
 Leave Link  302 at Wed Jun  9 15:07:33 2021, MaxMem=  3355443200 cpu:         6.0
 (Enter /usr/local/gqt/g09/l303.exe)
 DipDrv:  MaxL=1.
 Leave Link  303 at Wed Jun  9 15:07:33 2021, MaxMem=  3355443200 cpu:         0.8
 (Enter /usr/local/gqt/g09/l401.exe)
 ExpMin= 4.38D-02 ExpMax= 6.29D+03 ExpMxC= 9.49D+02 IAcc=2 IRadAn=         4 AccDes= 0.00D+00
 Harris functional with IExCor= 5547 and IRadAn=       4 diagonalized for initial guess.
 HarFok:  IExCor= 5547 AccDes= 0.00D+00 IRadAn=         4 IDoV= 1 UseB2=F ITyADJ=14
 ICtDFT=  3500011 ScaDFX=  1.000000  1.000000  1.000000  1.000000
 FoFCou: FMM=F IPFlag=           0 FMFlag=      100000 FMFlg1=           0
         NFxFlg=           0 DoJE=T BraDBF=F KetDBF=T FulRan=T
         wScrn=  0.000000 ICntrl=     500 IOpCl=  0 I1Cent=   200000004 NGrid=           0
         NMat0=    1 NMatS0=      1 NMatT0=    0 NMatD0=    1 NMtDS0=    0 NMtDT0=    0
 Petite list used in FoFCou.
 Harris En= -432.330124538746    
 JPrj=0 DoOrth=F DoCkMO=F.
 Leave Link  401 at Wed Jun  9 15:07:34 2021, MaxMem=  3355443200 cpu:        22.6
 (Enter /usr/local/gqt/g09/l502.exe)
 Closed shell SCF:
 Using DIIS extrapolation, IDIIS=  1040.
 Integral symmetry usage will be decided dynamically.
 IVT=      431249 IEndB=      431249 NGot=  3355443200 MDV=  3355163648
 LenX=  3355163648 LenY=  3355028518
 Requested convergence on RMS density matrix=1.00D-08 within 128 cycles.
 Requested convergence on MAX density matrix=1.00D-06.
 Requested convergence on             energy=1.00D-06.
 No special actions if energy rises.
 Fock matrices will be formed incrementally for  20 cycles.

 Cycle   1  Pass 1  IDiag  1:
 FoFJK:  IHMeth= 1 ICntrl=       0 DoSepK=T KAlg= 0 I1Cent=   0 FoldK=F
 IRaf=         1 NMat=   1 IRICut=       1 DoRegI=T DoRafI=F ISym2E= 0.
 FoFCou: FMM=F IPFlag=           0 FMFlag=      100000 FMFlg1=           0
         NFxFlg=           0 DoJE=T BraDBF=F KetDBF=F FulRan=T
         wScrn=  0.000000 ICntrl=     500 IOpCl=  0 I1Cent=           0 NGrid=           0
         NMat0=    1 NMatS0=      1 NMatT0=    0 NMatD0=    1 NMtDS0=    0 NMtDT0=    0
 Symmetry not used in FoFCou.
 Inv3:  Mode=1 IEnd=     9103692.
 Iteration    1 A*A^-1 deviation from unit magnitude is 5.11D-15 for    517.
 Iteration    1 A*A^-1 deviation from orthogonality  is 3.85D-15 for   1435    517.
 Iteration    1 A^-1*A deviation from unit magnitude is 5.00D-15 for   1704.
 Iteration    1 A^-1*A deviation from orthogonality  is 6.56D-13 for   1269   1226.
 E= -446.823867700858    
 DIIS: error= 6.27D-02 at cycle   1 NSaved=   1.
 NSaved= 1 IEnMin= 1 EnMin= -446.823867700858     IErMin= 1 ErrMin= 6.27D-02
 ErrMax= 6.27D-02  0.00D+00 EMaxC= 1.00D-01 BMatC= 1.09D+00 BMatP= 1.09D+00
 IDIUse=3 WtCom= 3.73D-01 WtEn= 6.27D-01
 Coeff-Com:  0.100D+01
 Coeff-En:   0.100D+01
 Coeff:      0.100D+01
 Gap=     0.121 Goal=   None    Shift=    0.000
 GapD=    0.121 DampG=1.000 DampE=0.500 DampFc=0.5000 IDamp=-1.
 Damping current iteration by 5.00D-01
 RMSDP=1.13D-02 MaxDP=1.43D+00              OVMax= 1.13D-01

 Cycle   2  Pass 1  IDiag  1:
 RMSU=  3.59D-03    CP:  8.70D-01
 E= -446.896942032107     Delta-E=       -0.073074331248 Rises=F Damp=T
 DIIS: error= 2.73D-02 at cycle   2 NSaved=   2.
 NSaved= 2 IEnMin= 2 EnMin= -446.896942032107     IErMin= 2 ErrMin= 2.73D-02
 ErrMax= 2.73D-02  0.00D+00 EMaxC= 1.00D-01 BMatC= 2.33D-01 BMatP= 1.09D+00
 IDIUse=3 WtCom= 7.27D-01 WtEn= 2.73D-01
 Coeff-Com: -0.553D+00 0.155D+01
 Coeff-En:   0.000D+00 0.100D+01
 Coeff:     -0.402D+00 0.140D+01
 Gap=     0.143 Goal=   None    Shift=    0.000
 RMSDP=8.50D-03 MaxDP=1.17D+00 DE=-7.31D-02 OVMax= 1.93D-01

 Cycle   3  Pass 1  IDiag  1:
 RMSU=  5.11D-03    CP:  6.86D-01  1.98D-01
 E= -446.873445800572     Delta-E=        0.023496231535 Rises=F Damp=F
 DIIS: error= 1.37D-02 at cycle   3 NSaved=   3.
 NSaved= 3 IEnMin= 2 EnMin= -446.896942032107     IErMin= 3 ErrMin= 1.37D-02
 ErrMax= 1.37D-02  0.00D+00 EMaxC= 1.00D-01 BMatC= 1.36D-01 BMatP= 2.33D-01
 IDIUse=3 WtCom= 8.63D-01 WtEn= 1.37D-01
 Coeff-Com: -0.409D+00 0.907D+00 0.502D+00
 Coeff-En:   0.000D+00 0.601D+00 0.399D+00
 Coeff:     -0.353D+00 0.865D+00 0.488D+00
 Gap=     0.130 Goal=   None    Shift=    0.000
 RMSDP=4.49D-03 MaxDP=3.10D-01 DE= 2.35D-02 OVMax= 1.43D-01

 Cycle   4  Pass 1  IDiag  1:
 RMSU=  1.36D-03    CP:  7.04D-01  1.15D+00  5.08D-01
 E= -446.988181944242     Delta-E=       -0.114736143671 Rises=F Damp=F
 DIIS: error= 6.07D-03 at cycle   4 NSaved=   4.
 NSaved= 4 IEnMin= 4 EnMin= -446.988181944242     IErMin= 4 ErrMin= 6.07D-03
 ErrMax= 6.07D-03  0.00D+00 EMaxC= 1.00D-01 BMatC= 9.54D-03 BMatP= 1.36D-01
 IDIUse=3 WtCom= 9.39D-01 WtEn= 6.07D-02
 Coeff-Com: -0.225D+00 0.497D+00 0.327D+00 0.401D+00
 Coeff-En:   0.000D+00 0.000D+00 0.000D+00 0.100D+01
 Coeff:     -0.211D+00 0.467D+00 0.307D+00 0.438D+00
 Gap=     0.122 Goal=   None    Shift=    0.000
 RMSDP=9.28D-04 MaxDP=7.46D-02 DE=-1.15D-01 OVMax= 3.80D-02

 Cycle   5  Pass 1  IDiag  1:
 RMSU=  4.51D-04    CP:  7.03D-01  1.07D+00  5.49D-01  4.70D-01
 E= -446.996719821791     Delta-E=       -0.008537877549 Rises=F Damp=F
 DIIS: error= 6.70D-04 at cycle   5 NSaved=   5.
 NSaved= 5 IEnMin= 5 EnMin= -446.996719821791     IErMin= 5 ErrMin= 6.70D-04
 ErrMax= 6.70D-04  0.00D+00 EMaxC= 1.00D-01 BMatC= 1.83D-04 BMatP= 9.54D-03
 IDIUse=3 WtCom= 9.93D-01 WtEn= 6.70D-03
 Coeff-Com: -0.229D-01 0.497D-01 0.389D-01 0.144D+00 0.790D+00
 Coeff-En:   0.000D+00 0.000D+00 0.000D+00 0.000D+00 0.100D+01
 Coeff:     -0.227D-01 0.494D-01 0.386D-01 0.143D+00 0.791D+00
 Gap=     0.122 Goal=   None    Shift=    0.000
 RMSDP=2.17D-04 MaxDP=1.90D-02 DE=-8.54D-03 OVMax= 6.30D-03

 Cycle   6  Pass 1  IDiag  1:
 RMSU=  1.12D-04    CP:  7.00D-01  1.05D+00  5.66D-01  5.47D-01  8.86D-01
 E= -446.996862589123     Delta-E=       -0.000142767332 Rises=F Damp=F
 DIIS: error= 2.74D-04 at cycle   6 NSaved=   6.
 NSaved= 6 IEnMin= 6 EnMin= -446.996862589123     IErMin= 6 ErrMin= 2.74D-04
 ErrMax= 2.74D-04  0.00D+00 EMaxC= 1.00D-01 BMatC= 3.61D-05 BMatP= 1.83D-04
 IDIUse=3 WtCom= 9.97D-01 WtEn= 2.74D-03
 Coeff-Com:  0.281D-02-0.706D-02-0.136D-02 0.459D-01 0.439D+00 0.521D+00
 Coeff-En:   0.000D+00 0.000D+00 0.000D+00 0.000D+00 0.139D+00 0.861D+00
 Coeff:      0.280D-02-0.704D-02-0.136D-02 0.458D-01 0.438D+00 0.522D+00
 Gap=     0.122 Goal=   None    Shift=    0.000
 RMSDP=1.17D-04 MaxDP=1.48D-02 DE=-1.43D-04 OVMax= 1.92D-03

 Cycle   7  Pass 1  IDiag  1:
 RMSU=  4.10D-05    CP:  7.02D-01  1.06D+00  5.57D-01  5.16D-01  9.77D-01
                    CP:  9.50D-01
 E= -446.996898426650     Delta-E=       -0.000035837527 Rises=F Damp=F
 DIIS: error= 2.06D-05 at cycle   7 NSaved=   7.
 NSaved= 7 IEnMin= 7 EnMin= -446.996898426650     IErMin= 7 ErrMin= 2.06D-05
 ErrMax= 2.06D-05  0.00D+00 EMaxC= 1.00D-01 BMatC= 3.09D-07 BMatP= 3.61D-05
 IDIUse=1 WtCom= 1.00D+00 WtEn= 0.00D+00
 Coeff-Com:  0.120D-02-0.270D-02-0.150D-02 0.384D-02 0.590D-01 0.114D+00
 Coeff-Com:  0.826D+00
 Coeff:      0.120D-02-0.270D-02-0.150D-02 0.384D-02 0.590D-01 0.114D+00
 Coeff:      0.826D+00
 Gap=     0.122 Goal=   None    Shift=    0.000
 RMSDP=3.28D-05 MaxDP=4.89D-03 DE=-3.58D-05 OVMax= 3.17D-04

 Cycle   8  Pass 1  IDiag  1:
 RMSU=  1.74D-05    CP:  7.02D-01  1.06D+00  5.59D-01  5.20D-01  9.76D-01
                    CP:  9.55D-01  8.95D-01
 E= -446.996898704121     Delta-E=       -0.000000277471 Rises=F Damp=F
 DIIS: error= 1.69D-05 at cycle   8 NSaved=   8.
 NSaved= 8 IEnMin= 8 EnMin= -446.996898704121     IErMin= 8 ErrMin= 1.69D-05
 ErrMax= 1.69D-05  0.00D+00 EMaxC= 1.00D-01 BMatC= 8.42D-08 BMatP= 3.09D-07
 IDIUse=1 WtCom= 1.00D+00 WtEn= 0.00D+00
 Coeff-Com:  0.430D-03-0.919D-03-0.620D-03-0.140D-02 0.146D-02 0.177D-01
 Coeff-Com:  0.365D+00 0.618D+00
 Coeff:      0.430D-03-0.919D-03-0.620D-03-0.140D-02 0.146D-02 0.177D-01
 Coeff:      0.365D+00 0.618D+00
 Gap=     0.122 Goal=   None    Shift=    0.000
 RMSDP=1.21D-05 MaxDP=1.97D-03 DE=-2.77D-07 OVMax= 8.30D-05

 Cycle   9  Pass 1  IDiag  1:
 RMSU=  2.47D-06    CP:  7.02D-01  1.06D+00  5.58D-01  5.19D-01  9.78D-01
                    CP:  9.65D-01  9.53D-01  7.28D-01
 E= -446.996898772318     Delta-E=       -0.000000068197 Rises=F Damp=F
 DIIS: error= 3.64D-06 at cycle   9 NSaved=   9.
 NSaved= 9 IEnMin= 9 EnMin= -446.996898772318     IErMin= 9 ErrMin= 3.64D-06
 ErrMax= 3.64D-06  0.00D+00 EMaxC= 1.00D-01 BMatC= 1.20D-08 BMatP= 8.42D-08
 IDIUse=1 WtCom= 1.00D+00 WtEn= 0.00D+00
 Coeff-Com:  0.718D-04-0.141D-03-0.103D-03-0.125D-02-0.448D-02-0.249D-02
 Coeff-Com:  0.114D+00 0.312D+00 0.583D+00
 Coeff:      0.718D-04-0.141D-03-0.103D-03-0.125D-02-0.448D-02-0.249D-02
 Coeff:      0.114D+00 0.312D+00 0.583D+00
 Gap=     0.122 Goal=   None    Shift=    0.000
 RMSDP=1.80D-06 MaxDP=2.48D-04 DE=-6.82D-08 OVMax= 2.30D-05

 Cycle  10  Pass 1  IDiag  1:
 RMSU=  9.20D-07    CP:  7.02D-01  1.06D+00  5.58D-01  5.19D-01  9.79D-01
                    CP:  9.67D-01  9.57D-01  7.77D-01  7.71D-01
 E= -446.996898783920     Delta-E=       -0.000000011602 Rises=F Damp=F
 DIIS: error= 1.56D-06 at cycle  10 NSaved=  10.
 NSaved=10 IEnMin=10 EnMin= -446.996898783920     IErMin=10 ErrMin= 1.56D-06
 ErrMax= 1.56D-06  0.00D+00 EMaxC= 1.00D-01 BMatC= 7.56D-10 BMatP= 1.20D-08
 IDIUse=1 WtCom= 1.00D+00 WtEn= 0.00D+00
 Coeff-Com: -0.519D-05 0.125D-04 0.157D-04-0.402D-03-0.140D-02-0.273D-02
 Coeff-Com:  0.151D-02 0.315D-01 0.156D+00 0.816D+00
 Coeff:     -0.519D-05 0.125D-04 0.157D-04-0.402D-03-0.140D-02-0.273D-02
 Coeff:      0.151D-02 0.315D-01 0.156D+00 0.816D+00
 Gap=     0.122 Goal=   None    Shift=    0.000
 RMSDP=6.65D-07 MaxDP=6.67D-05 DE=-1.16D-08 OVMax= 7.65D-06

 Cycle  11  Pass 1  IDiag  1:
 RMSU=  2.40D-07    CP:  7.02D-01  1.06D+00  5.58D-01  5.19D-01  9.79D-01
                    CP:  9.68D-01  9.59D-01  7.98D-01  8.28D-01  9.88D-01
 E= -446.996898784563     Delta-E=       -0.000000000643 Rises=F Damp=F
 DIIS: error= 2.76D-07 at cycle  11 NSaved=  11.
 NSaved=11 IEnMin=11 EnMin= -446.996898784563     IErMin=11 ErrMin= 2.76D-07
 ErrMax= 2.76D-07  0.00D+00 EMaxC= 1.00D-01 BMatC= 3.84D-11 BMatP= 7.56D-10
 IDIUse=1 WtCom= 1.00D+00 WtEn= 0.00D+00
 Coeff-Com: -0.616D-05 0.129D-04 0.118D-04-0.586D-04-0.917D-04-0.703D-03
 Coeff-Com: -0.660D-02-0.116D-01 0.157D-02 0.228D+00 0.789D+00
 Coeff:     -0.616D-05 0.129D-04 0.118D-04-0.586D-04-0.917D-04-0.703D-03
 Coeff:     -0.660D-02-0.116D-01 0.157D-02 0.228D+00 0.789D+00
 Gap=     0.122 Goal=   None    Shift=    0.000
 RMSDP=1.40D-07 MaxDP=6.95D-06 DE=-6.43D-10 OVMax= 4.33D-06

 Cycle  12  Pass 1  IDiag  1:
 RMSU=  7.04D-08    CP:  7.02D-01  1.06D+00  5.58D-01  5.19D-01  9.79D-01
                    CP:  9.68D-01  9.59D-01  7.99D-01  8.33D-01  1.05D+00
                    CP:  9.84D-01
 E= -446.996898784598     Delta-E=       -0.000000000034 Rises=F Damp=F
 DIIS: error= 7.86D-08 at cycle  12 NSaved=  12.
 NSaved=12 IEnMin=12 EnMin= -446.996898784598     IErMin=12 ErrMin= 7.86D-08
 ErrMax= 7.86D-08  0.00D+00 EMaxC= 1.00D-01 BMatC= 6.35D-12 BMatP= 3.84D-11
 IDIUse=1 WtCom= 1.00D+00 WtEn= 0.00D+00
 Coeff-Com: -0.305D-05 0.626D-05 0.474D-05 0.121D-05 0.420D-04-0.148D-03
 Coeff-Com: -0.309D-02-0.734D-02-0.126D-01 0.291D-01 0.391D+00 0.603D+00
 Coeff:     -0.305D-05 0.626D-05 0.474D-05 0.121D-05 0.420D-04-0.148D-03
 Coeff:     -0.309D-02-0.734D-02-0.126D-01 0.291D-01 0.391D+00 0.603D+00
 Gap=     0.122 Goal=   None    Shift=    0.000
 RMSDP=3.66D-08 MaxDP=1.87D-06 DE=-3.41D-11 OVMax= 1.31D-06

 Cycle  13  Pass 1  IDiag  1:
 RMSU=  1.91D-08    CP:  7.02D-01  1.06D+00  5.58D-01  5.19D-01  9.79D-01
                    CP:  9.68D-01  9.59D-01  8.00D-01  8.39D-01  1.05D+00
                    CP:  1.05D+00  8.62D-01
 E= -446.996898784678     Delta-E=       -0.000000000080 Rises=F Damp=F
 DIIS: error= 2.07D-08 at cycle  13 NSaved=  13.
 NSaved=13 IEnMin=13 EnMin= -446.996898784678     IErMin=13 ErrMin= 2.07D-08
 ErrMax= 2.07D-08  0.00D+00 EMaxC= 1.00D-01 BMatC= 2.92D-13 BMatP= 6.35D-12
 IDIUse=1 WtCom= 1.00D+00 WtEn= 0.00D+00
 Coeff-Com: -0.308D-06 0.678D-06 0.335D-06 0.563D-05 0.199D-04 0.245D-04
 Coeff-Com: -0.120D-03-0.338D-03-0.342D-02-0.188D-01 0.450D-01 0.186D+00
 Coeff-Com:  0.792D+00
 Coeff:     -0.308D-06 0.678D-06 0.335D-06 0.563D-05 0.199D-04 0.245D-04
 Coeff:     -0.120D-03-0.338D-03-0.342D-02-0.188D-01 0.450D-01 0.186D+00
 Coeff:      0.792D+00
 Gap=     0.122 Goal=   None    Shift=    0.000
 RMSDP=3.73D-08 MaxDP=6.48D-06 DE=-8.03D-11 OVMax= 5.45D-07

 Cycle  14  Pass 1  IDiag  1:
 RMSU=  6.65D-09    CP:  7.02D-01  1.06D+00  5.58D-01  5.19D-01  9.79D-01
                    CP:  9.68D-01  9.59D-01  8.01D-01  8.38D-01  1.06D+00
                    CP:  1.07D+00  9.13D-01  9.48D-01
 E= -446.996898784623     Delta-E=        0.000000000055 Rises=F Damp=F
 DIIS: error= 7.60D-09 at cycle  14 NSaved=  14.
 NSaved=14 IEnMin=13 EnMin= -446.996898784678     IErMin=14 ErrMin= 7.60D-09
 ErrMax= 7.60D-09  0.00D+00 EMaxC= 1.00D-01 BMatC= 3.02D-14 BMatP= 2.92D-13
 IDIUse=1 WtCom= 1.00D+00 WtEn= 0.00D+00
 Coeff-Com:  0.175D-06-0.348D-06-0.301D-06 0.120D-05-0.114D-05 0.185D-04
 Coeff-Com:  0.261D-03 0.760D-03 0.378D-03-0.103D-01-0.257D-01-0.680D-02
 Coeff-Com:  0.220D+00 0.821D+00
 Coeff:      0.175D-06-0.348D-06-0.301D-06 0.120D-05-0.114D-05 0.185D-04
 Coeff:      0.261D-03 0.760D-03 0.378D-03-0.103D-01-0.257D-01-0.680D-02
 Coeff:      0.220D+00 0.821D+00
 Gap=     0.122 Goal=   None    Shift=    0.000
 RMSDP=3.80D-09 MaxDP=1.60D-07 DE= 5.53D-11 OVMax= 2.61D-07

 Error on total polarization charges =  0.01779
 SCF Done:  E(RN12SX) =  -446.996898785     A.U. after   14 cycles
            NFock= 14  Conv=0.38D-08     -V/T= 2.0069
 KE= 4.439288886964D+02 PE=-2.439286858869D+03 EE= 8.464509807333D+02
 Leave Link  502 at Wed Jun  9 15:10:02 2021, MaxMem=  3355443200 cpu:      2338.8
 (Enter /usr/local/gqt/g09/l601.exe)
 Copying SCF densities to generalized density rwf, IOpCl= 0 IROHF=0.

 **********************************************************************

            Population analysis using the SCF density.

 **********************************************************************

 Orbital symmetries:
       Occupied  (A) (A) (A) (A) (A) (A) (A) (A) (A) (A) (A) (A)
                 (A) (A) (A) (A) (A) (A) (A) (A) (A) (A) (A) (A)
                 (A) (A) (A) (A) (A) (A) (A) (A) (A) (A) (A) (A)
                 (A) (A) (A) (A) (A) (A) (A)
       Virtual   (A) (A) (A) (A) (A) (A) (A) (A) (A) (A) (A) (A)
                 (A) (A) (A) (A) (A) (A) (A) (A) (A) (A) (A) (A)
                 (A) (A) (A) (A) (A) (A) (A) (A) (A) (A) (A) (A)
                 (A) (A) (A) (A) (A) (A) (A) (A) (A) (A) (A) (A)
                 (A) (A) (A) (A) (A) (A) (A) (A) (A) (A) (A) (A)
                 (A) (A) (A) (A) (A) (A) (A) (A) (A) (A) (A) (A)
                 (A) (A) (A) (A) (A) (A) (A) (A) (A) (A) (A) (A)
                 (A) (A) (A) (A) (A) (A) (A) (A) (A) (A) (A) (A)
                 (A) (A) (A) (A) (A) (A) (A) (A) (A) (A) (A) (A)
                 (A) (A) (A) (A) (A) (A) (A) (A) (A) (A) (A) (A)
                 (A) (A) (A) (A) (A) (A) (A) (A) (A) (A) (A) (A)
                 (A) (A) (A) (A) (A) (A) (A) (A) (A) (A) (A) (A)
                 (A) (A) (A) (A) (A) (A) (A) (A) (A) (A) (A) (A)
                 (A) (A) (A) (A) (A) (A) (A) (A) (A) (A) (A) (A)
                 (A) (A) (A) (A) (A) (A) (A) (A) (A) (A) (A) (A)
                 (A) (A) (A) (A) (A) (A) (A) (A) (A) (A) (A) (A)
                 (A) (A) (A) (A) (A) (A) (A) (A) (A) (A) (A) (A)
                 (A) (A) (A) (A) (A) (A) (A) (A) (A) (A) (A) (A)
                 (A) (A) (A) (A) (A) (A) (A) (A) (A) (A) (A) (A)
                 (A) (A) (A) (A) (A) (A) (A) (A) (A) (A) (A) (A)
                 (A) (A) (A) (A) (A) (A) (A) (A) (A) (A) (A) (A)
                 (A) (A) (A) (A) (A) (A) (A) (A) (A) (A) (A) (A)
                 (A) (A) (A) (A) (A) (A) (A) (A) (A) (A) (A) (A)
                 (A) (A) (A) (A) (A) (A) (A) (A) (A) (A) (A) (A)
                 (A) (A) (A) (A) (A) (A) (A) (A) (A) (A) (A) (A)
                 (A) (A) (A) (A) (A) (A) (A) (A) (A) (A) (A) (A)
                 (A)
 The electronic state is 1-A.
 Alpha  occ. eigenvalues --  -14.38685 -10.26737 -10.26632 -10.23428 -10.23094
 Alpha  occ. eigenvalues --  -10.22059 -10.21828 -10.21316 -10.21207 -10.21157
 Alpha  occ. eigenvalues --  -10.20630  -0.97221  -0.83621  -0.80304  -0.72609
 Alpha  occ. eigenvalues --   -0.70089  -0.69101  -0.67720  -0.63668  -0.60312
 Alpha  occ. eigenvalues --   -0.55838  -0.49553  -0.48709  -0.47515  -0.46575
 Alpha  occ. eigenvalues --   -0.44582  -0.43577  -0.42406  -0.40531  -0.39215
 Alpha  occ. eigenvalues --   -0.38919  -0.37778  -0.37425  -0.36048  -0.35801
 Alpha  occ. eigenvalues --   -0.35234  -0.34314  -0.33619  -0.32070  -0.31566
 Alpha  occ. eigenvalues --   -0.29373  -0.27244  -0.20033
 Alpha virt. eigenvalues --   -0.07844  -0.00216   0.00528   0.01049   0.01115
 Alpha virt. eigenvalues --    0.02786   0.02879   0.03185   0.03704   0.03804
 Alpha virt. eigenvalues --    0.04835   0.05769   0.06008   0.06258   0.06932
 Alpha virt. eigenvalues --    0.07227   0.07612   0.07864   0.09265   0.09528
 Alpha virt. eigenvalues --    0.09795   0.10152   0.10890   0.11211   0.11577
 Alpha virt. eigenvalues --    0.12510   0.12830   0.13476   0.14637   0.14737
 Alpha virt. eigenvalues --    0.15040   0.15680   0.15965   0.16235   0.17028
 Alpha virt. eigenvalues --    0.17569   0.18166   0.18672   0.18959   0.19515
 Alpha virt. eigenvalues --    0.19558   0.19853   0.19959   0.20155   0.21148
 Alpha virt. eigenvalues --    0.21750   0.22136   0.22462   0.22869   0.23535
 Alpha virt. eigenvalues --    0.24071   0.24235   0.24651   0.25828   0.26357
 Alpha virt. eigenvalues --    0.26963   0.27130   0.27459   0.28940   0.29176
 Alpha virt. eigenvalues --    0.30066   0.30277   0.30858   0.31531   0.32035
 Alpha virt. eigenvalues --    0.32942   0.33203   0.33351   0.35270   0.35885
 Alpha virt. eigenvalues --    0.37331   0.37567   0.41048   0.41349   0.42902
 Alpha virt. eigenvalues --    0.44349   0.44628   0.45817   0.47040   0.47514
 Alpha virt. eigenvalues --    0.48112   0.48987   0.49524   0.51202   0.52381
 Alpha virt. eigenvalues --    0.52621   0.53216   0.54071   0.56303   0.56765
 Alpha virt. eigenvalues --    0.57249   0.58648   0.60318   0.60814   0.61902
 Alpha virt. eigenvalues --    0.62833   0.63490   0.64992   0.65535   0.65888
 Alpha virt. eigenvalues --    0.66605   0.67111   0.67630   0.68685   0.69084
 Alpha virt. eigenvalues --    0.69513   0.70478   0.70757   0.71684   0.72277
 Alpha virt. eigenvalues --    0.73240   0.73621   0.74593   0.74965   0.75285
 Alpha virt. eigenvalues --    0.76349   0.76753   0.77356   0.77768   0.79298
 Alpha virt. eigenvalues --    0.79694   0.80657   0.81029   0.83273   0.87311
 Alpha virt. eigenvalues --    0.87574   0.90094   0.94050   0.97013   0.97890
 Alpha virt. eigenvalues --    1.02677   1.04674   1.07672   1.09158   1.10333
 Alpha virt. eigenvalues --    1.13580   1.15505   1.17382   1.23733   1.23883
 Alpha virt. eigenvalues --    1.25252   1.28752   1.30600   1.32117   1.34015
 Alpha virt. eigenvalues --    1.35585   1.38075   1.38969   1.40452   1.41545
 Alpha virt. eigenvalues --    1.43792   1.44518   1.44794   1.45875   1.46656
 Alpha virt. eigenvalues --    1.47741   1.48931   1.50002   1.51931   1.52367
 Alpha virt. eigenvalues --    1.53458   1.54358   1.55867   1.56260   1.56517
 Alpha virt. eigenvalues --    1.58468   1.59360   1.60850   1.62885   1.63461
 Alpha virt. eigenvalues --    1.64106   1.65251   1.65731   1.66821   1.67976
 Alpha virt. eigenvalues --    1.68192   1.69891   1.70957   1.71831   1.73116
 Alpha virt. eigenvalues --    1.74186   1.75525   1.75932   1.77264   1.77686
 Alpha virt. eigenvalues --    1.78194   1.80209   1.81144   1.83086   1.83936
 Alpha virt. eigenvalues --    1.85791   1.85853   1.88134   1.90083   1.90557
 Alpha virt. eigenvalues --    1.91945   1.94019   1.95061   1.97008   1.98452
 Alpha virt. eigenvalues --    2.00446   2.02842   2.04459   2.04958   2.06801
 Alpha virt. eigenvalues --    2.08332   2.11383   2.11690   2.13899   2.14905
 Alpha virt. eigenvalues --    2.18273   2.19450   2.22482   2.22861   2.24870
 Alpha virt. eigenvalues --    2.26308   2.28538   2.30571   2.33191   2.34686
 Alpha virt. eigenvalues --    2.35864   2.39980   2.41492   2.42697   2.43375
 Alpha virt. eigenvalues --    2.46266   2.48334   2.48452   2.48865   2.50455
 Alpha virt. eigenvalues --    2.50716   2.51401   2.52039   2.52746   2.53771
 Alpha virt. eigenvalues --    2.54030   2.54506   2.56630   2.56841   2.59347
 Alpha virt. eigenvalues --    2.60410   2.61615   2.63915   2.65771   2.66910
 Alpha virt. eigenvalues --    2.67704   2.69313   2.69807   2.72363   2.73080
 Alpha virt. eigenvalues --    2.74342   2.76312   2.77186   2.77866   2.78735
 Alpha virt. eigenvalues --    2.80938   2.83397   2.86677   2.88969   2.89847
 Alpha virt. eigenvalues --    2.92905   2.96449   3.00787   3.01889   3.03006
 Alpha virt. eigenvalues --    3.04515   3.08371   3.11479   3.12604   3.16971
 Alpha virt. eigenvalues --    3.18329   3.21543   3.25972   3.32969   3.34130
 Alpha virt. eigenvalues --    3.39702   3.42563   3.46505   3.62559   3.66077
 Alpha virt. eigenvalues --    3.73319   3.74617   3.75613   3.77576   3.77920
 Alpha virt. eigenvalues --    3.78538   3.79242   3.80484   3.81355   3.82713
 Alpha virt. eigenvalues --    3.85453   3.87683   3.90967   4.10019   4.18733
 Alpha virt. eigenvalues --    4.27950   4.32193   4.34109   4.39960   4.47660
 Alpha virt. eigenvalues --    4.80974   4.90013  23.59652  23.73859  23.75207
 Alpha virt. eigenvalues --   23.77802  23.79233  23.82107  23.83453  23.83775
 Alpha virt. eigenvalues --   23.85502  23.92469  35.37741
          Condensed to atoms (all electrons):
               1          2          3          4          5          6
     1  C    8.539007  -1.422278   0.535064  -0.545664   1.213183  -1.182730
     2  C   -1.422278   8.386944  -0.886277  -0.078220  -0.273998   0.552097
     3  C    0.535064  -0.886277   8.645836  -0.291958   0.081808  -0.165763
     4  N   -0.545664  -0.078220  -0.291958   8.643793  -2.718789   0.138349
     5  C    1.213183  -0.273998   0.081808  -2.718789  13.582802  -1.935075
     6  C   -1.182730   0.552097  -0.165763   0.138349  -1.935075   8.206088
     7  C    0.159173  -0.514515  -0.218342  -0.452908   0.533778  -0.361217
     8  C   -0.468197   0.098852  -0.306380   0.448676  -0.644989   0.341580
     9  C   -0.504832   0.178337  -0.367358   0.208663  -0.990707   0.255860
    10  C   -0.331176  -0.006750  -0.080204   0.824414  -1.672286   0.082571
    11  C   -0.112363  -0.108651  -0.402942   0.751779  -1.102003  -0.011448
    12  H    0.417432  -0.037779   0.009423   0.002451   0.016503  -0.063599
    13  H    0.440233  -0.091153  -0.005867   0.005935  -0.003787  -0.055776
    14  H   -0.040414   0.008702   0.001115   0.026438  -0.072338   0.453490
    15  H   -0.074851   0.003358   0.000039  -0.000751  -0.089280   0.464298
    16  H    0.041179  -0.022114  -0.073279  -0.001761   0.003947  -0.001523
    17  H   -0.027499  -0.069405   0.071400  -0.002702   0.004278   0.001550
    18  H   -0.035752   0.009083  -0.044750   0.000015   0.006638  -0.005416
    19  H    0.016003   0.019284  -0.038999  -0.007880  -0.027087   0.000534
    20  H    0.008016  -0.104645   0.075019   0.022375  -0.014690  -0.028478
    21  H   -0.003430  -0.081750   0.015263  -0.001724   0.011193   0.011767
    22  H   -0.002326   0.001731   0.004059   0.022207  -0.022280  -0.063454
    23  H    0.006379  -0.002505  -0.000739  -0.059755   0.051954   0.038214
    24  H   -0.001918  -0.007777   0.001912   0.016237  -0.082370  -0.007746
    25  H   -0.011379  -0.004865   0.020035   0.021615  -0.089909  -0.036180
    26  H    0.018938   0.003374   0.005132   0.006316  -0.073149   0.008332
    27  H    0.000063  -0.020151  -0.000640  -0.006092  -0.065011   0.061927
    28  H    0.004791  -0.010932   0.033605  -0.067870  -0.016551  -0.002780
    29  H   -0.000921   0.012774   0.023509  -0.099749   0.081894   0.008886
    30  H    0.005276   0.008891  -0.024650  -0.045587   0.021960  -0.013466
               7          8          9         10         11         12
     1  C    0.159173  -0.468197  -0.504832  -0.331176  -0.112363   0.417432
     2  C   -0.514515   0.098852   0.178337  -0.006750  -0.108651  -0.037779
     3  C   -0.218342  -0.306380  -0.367358  -0.080204  -0.402942   0.009423
     4  N   -0.452908   0.448676   0.208663   0.824414   0.751779   0.002451
     5  C    0.533778  -0.644989  -0.990707  -1.672286  -1.102003   0.016503
     6  C   -0.361217   0.341580   0.255860   0.082571  -0.011448  -0.063599
     7  C    7.034869  -0.837419   0.010180  -0.180508  -0.078451  -0.000484
     8  C   -0.837419   6.527900   0.058919   0.102059   0.072290  -0.004497
     9  C    0.010180   0.058919   6.433546  -0.078963   0.068246   0.004737
    10  C   -0.180508   0.102059  -0.078963   6.567380   0.185511   0.009993
    11  C   -0.078451   0.072290   0.068246   0.185511   5.762501   0.000908
    12  H   -0.000484  -0.004497   0.004737   0.009993   0.000908   0.484358
    13  H    0.016344   0.016053   0.009634   0.004826   0.002039  -0.021026
    14  H   -0.002140   0.005638  -0.045287   0.018930   0.001922  -0.005270
    15  H    0.000048  -0.008119   0.025023   0.018620  -0.000522  -0.005666
    16  H    0.463408  -0.030955   0.000245  -0.000113  -0.001766  -0.000491
    17  H    0.403031  -0.021557  -0.000693  -0.000679   0.000969   0.002331
    18  H    0.401264   0.032538   0.000734   0.001820  -0.000601   0.000299
    19  H    0.042112   0.372194  -0.000395   0.001405  -0.001808  -0.000512
    20  H   -0.037927   0.448047  -0.011157   0.003843   0.010001  -0.000253
    21  H    0.027028   0.394431   0.000068  -0.002110  -0.001332   0.001062
    22  H    0.000149  -0.000102   0.404173   0.015399   0.009670  -0.000050
    23  H    0.000314  -0.000190   0.427527  -0.081272  -0.020578   0.000010
    24  H   -0.001047   0.002271   0.414675   0.035696  -0.005939  -0.000020
    25  H   -0.002271  -0.000909  -0.018980   0.467436   0.011680  -0.000109
    26  H    0.000486   0.001051   0.011767   0.398630  -0.010087  -0.000030
    27  H   -0.000069  -0.001356   0.014650   0.386379   0.001805   0.000246
    28  H   -0.001765   0.001850   0.012635   0.003765   0.406608  -0.000009
    29  H    0.004025  -0.005571  -0.001907  -0.025717   0.377901   0.000002
    30  H    0.005952  -0.005161  -0.029879   0.011921   0.415606  -0.000010
              13         14         15         16         17         18
     1  C    0.440233  -0.040414  -0.074851   0.041179  -0.027499  -0.035752
     2  C   -0.091153   0.008702   0.003358  -0.022114  -0.069405   0.009083
     3  C   -0.005867   0.001115   0.000039  -0.073279   0.071400  -0.044750
     4  N    0.005935   0.026438  -0.000751  -0.001761  -0.002702   0.000015
     5  C   -0.003787  -0.072338  -0.089280   0.003947   0.004278   0.006638
     6  C   -0.055776   0.453490   0.464298  -0.001523   0.001550  -0.005416
     7  C    0.016344  -0.002140   0.000048   0.463408   0.403031   0.401264
     8  C    0.016053   0.005638  -0.008119  -0.030955  -0.021557   0.032538
     9  C    0.009634  -0.045287   0.025023   0.000245  -0.000693   0.000734
    10  C    0.004826   0.018930   0.018620  -0.000113  -0.000679   0.001820
    11  C    0.002039   0.001922  -0.000522  -0.001766   0.000969  -0.000601
    12  H   -0.021026  -0.005270  -0.005666  -0.000491   0.002331   0.000299
    13  H    0.499734  -0.006503   0.005580  -0.000037   0.000266   0.005264
    14  H   -0.006503   0.481814  -0.021959   0.000006  -0.000013  -0.000025
    15  H    0.005580  -0.021959   0.491683  -0.000024   0.000000   0.000047
    16  H   -0.000037   0.000006  -0.000024   0.501096  -0.025782  -0.025350
    17  H    0.000266  -0.000013   0.000000  -0.025782   0.522461  -0.025079
    18  H    0.005264  -0.000025   0.000047  -0.025350  -0.025079   0.513603
    19  H    0.000877  -0.000272   0.006018  -0.000542   0.000882  -0.000374
    20  H   -0.000503   0.000076  -0.000475   0.000640  -0.000060  -0.000498
    21  H   -0.000168  -0.000006   0.000182  -0.000904  -0.000177   0.001270
    22  H    0.000022   0.003208   0.000067   0.000000   0.000000   0.000000
    23  H   -0.000030  -0.000391  -0.000160   0.000000   0.000000   0.000000
    24  H    0.000045   0.000207   0.005086   0.000000  -0.000001   0.000000
    25  H   -0.001067   0.000184  -0.000597   0.000006   0.000010   0.000081
    26  H    0.000341   0.000738  -0.000124   0.000000   0.000000  -0.000014
    27  H    0.007174  -0.000922   0.000595  -0.000009   0.000035  -0.000007
    28  H    0.000002  -0.000041  -0.000130   0.000001   0.000000   0.000000
    29  H   -0.000005   0.000004  -0.000050  -0.000026   0.000000  -0.000012
    30  H   -0.000147   0.000070   0.000051   0.000007   0.000002   0.000005
              19         20         21         22         23         24
     1  C    0.016003   0.008016  -0.003430  -0.002326   0.006379  -0.001918
     2  C    0.019284  -0.104645  -0.081750   0.001731  -0.002505  -0.007777
     3  C   -0.038999   0.075019   0.015263   0.004059  -0.000739   0.001912
     4  N   -0.007880   0.022375  -0.001724   0.022207  -0.059755   0.016237
     5  C   -0.027087  -0.014690   0.011193  -0.022280   0.051954  -0.082370
     6  C    0.000534  -0.028478   0.011767  -0.063454   0.038214  -0.007746
     7  C    0.042112  -0.037927   0.027028   0.000149   0.000314  -0.001047
     8  C    0.372194   0.448047   0.394431  -0.000102  -0.000190   0.002271
     9  C   -0.000395  -0.011157   0.000068   0.404173   0.427527   0.414675
    10  C    0.001405   0.003843  -0.002110   0.015399  -0.081272   0.035696
    11  C   -0.001808   0.010001  -0.001332   0.009670  -0.020578  -0.005939
    12  H   -0.000512  -0.000253   0.001062  -0.000050   0.000010  -0.000020
    13  H    0.000877  -0.000503  -0.000168   0.000022  -0.000030   0.000045
    14  H   -0.000272   0.000076  -0.000006   0.003208  -0.000391   0.000207
    15  H    0.006018  -0.000475   0.000182   0.000067  -0.000160   0.005086
    16  H   -0.000542   0.000640  -0.000904   0.000000   0.000000   0.000000
    17  H    0.000882  -0.000060  -0.000177   0.000000   0.000000  -0.000001
    18  H   -0.000374  -0.000498   0.001270   0.000000   0.000000   0.000000
    19  H    0.482298  -0.023620  -0.022870  -0.000008   0.000002   0.000149
    20  H   -0.023620   0.498800  -0.023981   0.000012  -0.000007   0.000085
    21  H   -0.022870  -0.023981   0.507995   0.000000  -0.000001   0.000001
    22  H   -0.000008   0.000012   0.000000   0.491008  -0.023458  -0.023133
    23  H    0.000002  -0.000007  -0.000001  -0.023458   0.514067  -0.023960
    24  H    0.000149   0.000085   0.000001  -0.023133  -0.023960   0.495510
    25  H   -0.000011   0.000089  -0.000004   0.000056   0.000498  -0.000485
    26  H   -0.000007   0.000003  -0.000002  -0.000369  -0.000975   0.000964
    27  H   -0.000005   0.000040  -0.000003   0.000958  -0.000289  -0.000238
    28  H   -0.000019   0.000215  -0.000004   0.001264   0.000015  -0.000800
    29  H    0.000004  -0.000386   0.000001  -0.000076   0.001043  -0.000194
    30  H   -0.000001  -0.000110   0.000024  -0.000172   0.000150   0.000059
              25         26         27         28         29         30
     1  C   -0.011379   0.018938   0.000063   0.004791  -0.000921   0.005276
     2  C   -0.004865   0.003374  -0.020151  -0.010932   0.012774   0.008891
     3  C    0.020035   0.005132  -0.000640   0.033605   0.023509  -0.024650
     4  N    0.021615   0.006316  -0.006092  -0.067870  -0.099749  -0.045587
     5  C   -0.089909  -0.073149  -0.065011  -0.016551   0.081894   0.021960
     6  C   -0.036180   0.008332   0.061927  -0.002780   0.008886  -0.013466
     7  C   -0.002271   0.000486  -0.000069  -0.001765   0.004025   0.005952
     8  C   -0.000909   0.001051  -0.001356   0.001850  -0.005571  -0.005161
     9  C   -0.018980   0.011767   0.014650   0.012635  -0.001907  -0.029879
    10  C    0.467436   0.398630   0.386379   0.003765  -0.025717   0.011921
    11  C    0.011680  -0.010087   0.001805   0.406608   0.377901   0.415606
    12  H   -0.000109  -0.000030   0.000246  -0.000009   0.000002  -0.000010
    13  H   -0.001067   0.000341   0.007174   0.000002  -0.000005  -0.000147
    14  H    0.000184   0.000738  -0.000922  -0.000041   0.000004   0.000070
    15  H   -0.000597  -0.000124   0.000595  -0.000130  -0.000050   0.000051
    16  H    0.000006   0.000000  -0.000009   0.000001  -0.000026   0.000007
    17  H    0.000010   0.000000   0.000035   0.000000   0.000000   0.000002
    18  H    0.000081  -0.000014  -0.000007   0.000000  -0.000012   0.000005
    19  H   -0.000011  -0.000007  -0.000005  -0.000019   0.000004  -0.000001
    20  H    0.000089   0.000003   0.000040   0.000215  -0.000386  -0.000110
    21  H   -0.000004  -0.000002  -0.000003  -0.000004   0.000001   0.000024
    22  H    0.000056  -0.000369   0.000958   0.001264  -0.000076  -0.000172
    23  H    0.000498  -0.000975  -0.000289   0.000015   0.001043   0.000150
    24  H   -0.000485   0.000964  -0.000238  -0.000800  -0.000194   0.000059
    25  H    0.492994  -0.020896  -0.022981  -0.000347  -0.001131   0.012564
    26  H   -0.020896   0.488687  -0.018994   0.001036  -0.000070  -0.003636
    27  H   -0.022981  -0.018994   0.485505  -0.000221  -0.000035   0.001146
    28  H   -0.000347   0.001036  -0.000221   0.533353  -0.017894  -0.031324
    29  H   -0.001131  -0.000070  -0.000035  -0.017894   0.502176  -0.026065
    30  H    0.012564  -0.003636   0.001146  -0.031324  -0.026065   0.519475
 Mulliken charges:
               1
     1  C   -0.639007
     2  C    0.460338
     3  C   -0.615067
     4  N    0.242150
     5  C    0.284362
     6  C   -0.690892
     7  C   -0.413098
     8  C   -0.588949
     9  C   -0.489463
    10  C   -0.680817
    11  C   -0.220946
    12  H    0.190048
    13  H    0.171700
    14  H    0.193042
    15  H    0.182015
    16  H    0.174142
    17  H    0.166433
    18  H    0.165214
    19  H    0.182650
    20  H    0.179531
    21  H    0.168182
    22  H    0.181446
    23  H    0.174140
    24  H    0.182731
    25  H    0.184873
    26  H    0.182557
    27  H    0.176503
    28  H    0.151546
    29  H    0.167591
    30  H    0.177046
 Sum of Mulliken charges =   0.00000
 Mulliken charges with hydrogens summed into heavy atoms:
               1
     1  C   -0.277260
     2  C    0.460338
     3  C   -0.615067
     4  N    0.242150
     5  C    0.284362
     6  C   -0.315835
     7  C    0.092692
     8  C   -0.058586
     9  C    0.048853
    10  C   -0.136885
    11  C    0.275236
 Electronic spatial extent (au):  <R**2>=           1733.5065
 Charge=              0.0000 electrons
 Dipole moment (field-independent basis, Debye):
    X=             -1.6908    Y=             -2.8561    Z=             -0.8473  Tot=              3.4256
 Quadrupole moment (field-independent basis, Debye-Ang):
   XX=            -68.4718   YY=            -74.0059   ZZ=            -73.6017
   XY=             -2.9145   XZ=             -2.2118   YZ=             -2.5055
 Traceless Quadrupole moment (field-independent basis, Debye-Ang):
   XX=              3.5547   YY=             -1.9795   ZZ=             -1.5752
   XY=             -2.9145   XZ=             -2.2118   YZ=             -2.5055
 Octapole moment (field-independent basis, Debye-Ang**2):
  XXX=            -11.3450  YYY=            -13.3827  ZZZ=             -3.7909  XYY=             -7.7335
  XXY=             -1.1367  XXZ=             -4.0350  XZZ=             -3.4639  YZZ=             -6.3506
  YYZ=             -6.8985  XYZ=             -1.6665
 Hexadecapole moment (field-independent basis, Debye-Ang**3):
 XXXX=          -1398.8549 YYYY=           -598.0332 ZZZZ=           -445.3927 XXXY=            -14.2490
 XXXZ=            -19.6864 YYYX=            -11.8557 YYYZ=            -19.4406 ZZZX=              2.9713
 ZZZY=             -3.9436 XXYY=           -328.1239 XXZZ=           -317.3186 YYZZ=           -179.9197
 XXYZ=             -5.0331 YYXZ=             -7.6751 ZZXY=             -8.3000
 N-N= 7.019100906542D+02 E-N=-2.439286862823D+03  KE= 4.439288886964D+02
 No NMR shielding tensors so no spin-rotation constants.
 Leave Link  601 at Wed Jun  9 15:10:02 2021, MaxMem=  3355443200 cpu:         2.8
 (Enter /usr/local/gqt/g09/l701.exe)
 Compute integral first derivatives.
 ... and contract with generalized density number  0.
 D1PCM: PCM CHGder 1st derivatives, ID1Alg=3 FixD1E=F DoIter=F DoCFld=F I1PDM=0.
 GePol: Maximum number of non-zero 1st derivatives   =     162
 Leave Link  701 at Wed Jun  9 15:10:04 2021, MaxMem=  3355443200 cpu:        28.2
 (Enter /usr/local/gqt/g09/l702.exe)
 L702 exits ... SP integral derivatives will be done elsewhere.
 Leave Link  702 at Wed Jun  9 15:10:04 2021, MaxMem=  3355443200 cpu:         0.3
 (Enter /usr/local/gqt/g09/l703.exe)
 Compute integral first derivatives, UseDBF=F ICtDFT=           0.
 Integral derivatives from FoFJK, PRISM(SPDF).
 Calling FoFJK, ICntrl=      2127 FMM=F ISym2X=0 I1Cent= 0 IOpClX= 0 NMat=1 NMatS=1 NMatT=0.
 FoFJK:  IHMeth= 1 ICntrl=    2127 DoSepK=T KAlg= 0 I1Cent=   0 FoldK=F
 IRaf=         1 NMat=   1 IRICut=       1 DoRegI=T DoRafI=F ISym2E= 0.
 FoFCou: FMM=F IPFlag=           0 FMFlag=      100000 FMFlg1=         800
         NFxFlg=           0 DoJE=F BraDBF=F KetDBF=F FulRan=T
         wScrn=  0.000000 ICntrl=    2527 IOpCl=  0 I1Cent=           0 NGrid=           0
         NMat0=    1 NMatS0=      1 NMatT0=    0 NMatD0=    1 NMtDS0=    0 NMtDT0=    0
 Symmetry not used in FoFCou.
 Leave Link  703 at Wed Jun  9 15:10:52 2021, MaxMem=  3355443200 cpu:       764.9
 (Enter /usr/local/gqt/g09/l716.exe)
 Dipole        =-6.65222789D-01-1.12369500D+00-3.33362254D-01
 ***** Axes restored to original set *****
 -------------------------------------------------------------------
 Center     Atomic                   Forces (Hartrees/Bohr)
 Number     Number              X              Y              Z
 -------------------------------------------------------------------
      1        6          -0.004097610    0.016016479   -0.006135848
      2        6          -0.013510859    0.005341228    0.014690678
      3        6           0.044027978   -0.009615710   -0.036907259
      4        7          -0.064509261   -0.033178813    0.029895059
      5        6           0.014546923    0.040352567   -0.022568848
      6        6          -0.002162565    0.007442878   -0.008780966
      7        6          -0.009344475   -0.003321903    0.003961857
      8        6           0.012293162   -0.013282407   -0.012470207
      9        6           0.012059052    0.007591160   -0.002428611
     10        6          -0.011108083    0.016257965    0.019597164
     11        6           0.025445049   -0.025200095    0.017393491
     12        1           0.000896780   -0.002599472    0.014353087
     13        1           0.004778917   -0.004912452   -0.015973272
     14        1           0.004038844   -0.014661546   -0.001932290
     15        1          -0.006074775    0.008360518    0.012211084
     16        1          -0.004233368    0.014969039   -0.001049983
     17        1           0.004676942   -0.004755141    0.013292426
     18        1           0.003963458   -0.008020312   -0.012521245
[...]
 .00001229,0.00017289,0.00001153,-0.00027997,-0.00033504,-0.00029405,-0
 .00054866,0.00143477,0.00084912,-0.00674141,0.00190729,-0.01306600,0.0
 0153432,-0.00095788,-0.00141719,0.00002344,-0.00005225,0.00004716,0.00
 007368,-0.00007938,0.00001583,-0.00067108,-0.00000073,0.00062329,0.028
 56783,-0.06114094,0.05689192,0.00066428,-0.00085330,-0.00070507,0.0000
 1444,-0.00002495,-0.00002138,0.00013494,-0.00003028,0.00001243,-0.0000
 8813,0.00042183,-0.00017018,-0.00022655,0.00045270,-0.00061133,-0.0000
 0966,-0.00001291,-0.00000427,0.00002553,0.00001037,0.00000437,-0.00000
 138,0.00000489,-0.00000629,-0.00001658,0.00000174,0.00000752,0.0000035
 8,-0.00001911,-0.00001714,-0.00000851,0.00000821,0.00002949,0.00004880
 ,0.00001423,0.00008724,0.00002951,0.00018397,0.00023982,-0.00012204,-0
 .00012852,0.00003204,-0.00436914,0.00187896,-0.01000355,-0.03414026,0.
 06496956,0.00054077,0.00032171,0.00008055,-0.00006188,0.00013343,0.000
 02262,0.00011144,-0.00029200,0.00003941,-0.00045823,0.00109296,0.00049
 178,-0.01165008,0.00735181,-0.02177321,0.00392617,-0.00276841,-0.00255
 878,0.00004935,-0.00008828,0.00000035,0.00005717,-0.00007924,0.0000151
 2,-0.00161771,0.00003240,0.00076602,-0.10487611,0.05548053,-0.25131383
 ,-0.00051584,0.00019272,-0.00061991,-0.00018374,-0.00006419,-0.0000519
 6,-0.00004467,-0.00001153,0.00013512,0.00011063,-0.00012490,0.00041846
 ,-0.00073447,0.00007770,-0.00151740,-0.00003295,-0.00004321,0.00000278
 ,0.00000553,0.00000878,-0.00000143,-0.00000525,0.00000543,0.00000407,-
 0.00005880,0.00002380,0.00005039,-0.00001651,-0.00004506,-0.00002635,-
 0.00002383,0.00000363,-0.00000170,0.00002296,-0.00007509,0.00004119,0.
 00099657,0.00023207,0.00033227,0.00007884,-0.00016571,0.00033313,0.001
 19268,-0.00081351,0.00172545,0.11363214,-0.06078035,0.27370850,-0.0002
 8723,0.00008409,0.00000922,-0.00029155,0.00007901,0.00023904,0.0001436
 9,0.00052927,-0.00083688,-0.00068585,0.00178977,0.00286784,-0.00115571
 ,0.01532109,-0.00230019,0.00032440,-0.00009391,-0.00077472,0.00000847,
 -0.00007590,0.00008702,0.00010867,-0.00009327,0.00002673,0.00031240,0.
 00033695,-0.00034324,-0.04704545,-0.00462952,0.00111544,0.00019129,0.0
 0004788,0.00002646,0.00008018,-0.00003262,-0.00009215,0.00009005,-0.00
 005625,-0.00006431,0.00024365,-0.00021837,-0.00007333,-0.00007718,-0.0
 0010066,-0.00014144,-0.00001315,-0.00001559,-0.00001064,0.00003825,0.0
 0000510,0.00001316,-0.00000655,0.00000432,-0.00001573,-0.00000976,-0.0
 0000067,0.00000102,-0.00000193,0.00000499,-0.00001650,-0.00001174,0.00
 001627,0.00004776,-0.00037879,-0.00009359,0.00038463,-0.00008056,0.000
 06010,-0.00005777,0.00023727,-0.00016785,-0.00017067,0.00162722,-0.030
 53874,0.00330013,-0.00049610,0.01484258,-0.00061507,0.04707796,-0.0003
 7396,0.00000202,-0.00019488,0.00027781,0.00005264,-0.00028012,0.000460
 46,-0.00022767,0.00129257,0.00160335,-0.00070266,-0.00317734,-0.001113
 15,-0.01392255,0.00254905,-0.00001760,0.00000595,0.00133104,0.00005051
 ,0.00014719,-0.00009398,-0.00023305,0.00013348,-0.00002911,-0.00060091
 ,0.00035740,0.00068684,-0.00334265,-0.31701183,0.02613237,-0.00055010,
 0.00019598,-0.00039971,-0.00001113,0.00004790,-0.00009917,0.00010705,-
 0.00011504,-0.00004555,-0.00023561,0.00077279,-0.00050719,0.00000466,0
 .00042590,-0.00000392,0.00002501,-0.00000362,0.00000496,-0.00007666,-0
 .00000994,-0.00001951,0.00000850,0.00000071,0.00001804,0.00002015,0.00
 000593,0.00000267,0.00001262,-0.00001315,0.00001119,0.00000712,-0.0000
 2139,-0.00009359,0.00034019,0.00044617,-0.00006266,0.00007316,-0.00005
 320,-0.00004946,-0.00003345,0.00032191,-0.00009052,0.00083198,-0.00808
 151,0.00084067,-0.00034049,-0.00624232,0.00017722,0.00303833,0.3434095
 0,-0.00006942,0.00009973,-0.00006483,0.00052491,-0.00019183,-0.0002060
 4,0.00032612,-0.00037053,0.00156689,0.00198419,-0.00373511,-0.00486915
 ,-0.00064697,-0.02484858,0.00140525,-0.00021594,-0.00098070,0.00090455
 ,-0.00003567,0.00013092,-0.00007623,-0.00016420,0.00013330,-0.00004982
 ,-0.00067237,0.00000359,0.00085414,0.00079016,0.02833653,-0.04796655,-
 0.00048450,0.00005653,-0.00065677,-0.00001837,0.00002335,-0.00002316,-
 0.00001750,0.00001168,-0.00001404,-0.00008093,0.00023250,-0.00061480,0
 .00002041,0.00022935,0.00033517,0.00002184,0.00003378,-0.00000217,-0.0
 0005578,-0.00000289,-0.00001461,0.00001139,-0.00000302,0.00001530,0.00
 002242,-0.00000174,-0.00000707,0.00000819,0.00000113,0.00002684,0.0000
 1577,-0.00001872,-0.00007548,0.00037904,0.00024029,-0.00011195,0.00008
 781,0.00013726,-0.00001591,-0.00032458,0.00010122,-0.00000055,-0.00017
 243,0.00029025,-0.00131646,0.00143245,0.02796967,-0.00198911,-0.002905
 22,-0.02787864,0.05231542,0.00011657,-0.00016866,0.00005007,0.00110483
 ,-0.00050743,-0.00184145,-0.00106500,0.00310734,0.00140384,-0.02291713
 ,-0.00159501,-0.00183693,-0.00119187,-0.00166830,0.00004595,0.00004850
 ,0.00007793,0.00005691,0.00020506,0.00017937,-0.00003867,-0.00074277,0
 .00035621,-0.00026952,0.00005602,-0.00104544,0.00006527,0.00016249,0.0
 0015116,0.00002288,-0.28484202,-0.02052247,0.08912860,-0.00002639,0.00
 007657,-0.00004410,-0.00000150,0.00002867,0.00003790,0.00002025,0.0000
 9874,-0.00004670,-0.00000556,-0.00002101,-0.00002227,0.00000966,-0.000
 01575,0.00000855,-0.00009689,0.00000074,-0.00003599,-0.00000527,-0.000
 00726,0.00005652,0.00002264,0.00003474,0.00002737,0.00001331,-0.000044
 34,0.00003577,0.00007329,-0.00010241,-0.00026794,0.00052118,-0.0002324
 9,0.00024510,0.00037938,-0.00016814,0.00072059,0.00000204,-0.00023522,
 -0.00027120,0.00007096,-0.00001581,-0.00006748,0.00000172,-0.00001405,
 0.00000887,-0.00000556,0.00009412,0.00008926,0.31396150,-0.00003062,0.
 00013842,-0.00013134,-0.00029347,0.00048162,0.00046685,-0.00041752,-0.
 00094938,-0.00127111,0.01350376,0.00158323,-0.00269082,0.00074424,0.00
 065001,-0.00040271,-0.00017022,0.00001150,0.00012897,-0.00002697,-0.00
 004997,-0.00000063,0.00029572,-0.00011163,0.00012930,0.00019367,-0.001
 51462,0.00014446,-0.00004576,-0.00021757,-0.00024613,-0.02460750,-0.05
 179854,0.01009811,-0.00003114,-0.00002225,0.00000042,-0.00001324,-0.00
 000968,-0.00000989,-0.00003855,0.00000824,-0.00004619,0.00002576,-0.00
 000991,0.00004367,0.00000042,-0.00000144,0.00000092,0.00001172,0.00000
 573,0.00000730,0.00000065,0.00000176,-0.00001461,-0.00001250,-0.000006
 78,-0.00001896,0.00000389,-0.00000148,-0.00002180,-0.00002380,0.000020
 81,0.00011619,-0.00004166,0.00018210,0.00004035,-0.00002798,-0.0019762
 9,0.00023780,-0.00021439,-0.00042204,0.00048695,-0.00005006,-0.0000135
 4,0.00007014,0.00009359,0.00000157,0.00015308,0.00004959,0.00000337,0.
 00007945,0.02303522,0.05169913,0.00012917,-0.00017578,0.00011686,0.001
 26023,-0.00072486,-0.00203115,-0.00167037,0.00272223,0.00145940,-0.031
 10665,-0.00238906,0.00562555,-0.00000955,-0.00116418,0.00030364,-0.000
 06349,-0.00013956,-0.00001283,0.00020067,0.00004992,0.00006889,-0.0006
 1864,0.00025158,-0.00032947,0.00029150,0.00136526,0.00060003,0.0000222
 9,-0.00013931,-0.00032086,0.09348116,0.00873316,-0.08172761,-0.0000147
 4,0.00001420,-0.00001759,-0.00000026,0.00001879,0.00003382,0.00005641,
 0.00001608,0.00002647,-0.00001584,0.00000535,-0.00001422,-0.00000317,-
 0.00000710,0.00000469,-0.00001941,0.00002003,-0.00002593,0.00000062,-0
 .00000681,0.00004505,0.00002693,0.00002384,0.00000992,0.00000750,-0.00
 003208,0.00002634,0.00007334,-0.00007033,-0.00025338,-0.00022838,0.000
 06580,-0.00033485,0.00002416,0.00011228,-0.00054417,0.00028742,0.00040
 598,-0.00030284,0.00006013,-0.00002758,-0.00000367,0.00009899,0.000064
 82,0.00024669,0.00008514,0.00004363,0.00012793,-0.09110183,-0.01233874
 ,0.08731710,0.00026804,0.00013987,0.00014195,0.00011968,-0.00019773,0.
 00006095,-0.00028044,0.00236450,0.00058487,0.00037842,0.02581356,-0.00
 794587,-0.00216057,-0.00101306,-0.00321376,-0.00000721,0.00117757,0.00
 004896,-0.00002545,-0.00001823,0.00000175,0.00004609,-0.00000915,-0.00
 000973,-0.00033351,-0.00089895,-0.00025438,0.00007967,-0.00005374,-0.0
 0009194,-0.06302978,-0.07173737,0.01419145,-0.00000452,-0.00007390,-0.
 00001326,-0.00000745,-0.00000634,0.00000135,-0.00015715,0.00013940,-0.
 00032406,0.00000633,-0.00001437,-0.00003778,-0.00002916,-0.00000700,-0
 .00001946,0.00000523,-0.00001125,0.00000358,-0.00000124,0.00000587,-0.
 00001403,-0.00001504,0.00000164,0.00001873,-0.00000283,-0.00002142,-0.
 00002720,-0.00000080,-0.00002176,0.00001626,0.00028990,-0.00010278,0.0
 0022367,0.00018277,0.00000091,0.00060208,0.00004698,0.00011057,-0.0002
 3712,-0.00000149,0.00000486,-0.00001407,0.00002262,-0.00006075,-0.0000
 2242,-0.00001406,0.00003506,-0.00002769,-0.00417987,-0.02814159,0.0029
 8718,0.06824099,-0.00020422,0.00021189,-0.00023798,0.00040721,0.000878
 08,-0.00024169,-0.00471370,-0.00063574,-0.00432602,0.00044381,-0.01581
 299,0.00433470,0.00121593,0.00120293,0.00197625,-0.00019180,-0.0008983
 0,-0.00036369,0.00007821,0.00000726,0.00009083,0.00002480,0.00002764,0
 .00002595,0.00032757,0.00027216,-0.00016963,-0.00015067,0.00000776,0.0
 0016144,-0.06184553,-0.31476720,0.04186341,0.00001791,0.00012489,0.000
 01429,-0.00000379,0.00003407,-0.00001280,0.00014710,-0.00005118,0.0003
 1931,-0.00002025,0.00001611,0.00004005,0.00000424,0.00002203,-0.000001
 19,0.00001047,0.00001731,-0.00001270,-0.00000473,-0.00000943,0.0000054
 9,0.00001183,-0.00000240,-0.00002766,0.00001044,-0.00000145,0.00000403
 ,-0.00000151,-0.00001071,0.00000416,-0.00002417,0.00005236,-0.00001829
 ,0.00009376,0.00010745,0.00002121,-0.00004103,0.00001701,0.00008257,0.
 00006751,-0.00001105,0.00000894,-0.00006239,0.00010858,0.00007240,0.00
 002808,-0.00007192,-0.00002884,0.00022880,0.00079701,-0.00055269,0.067
 45112,0.33974812,0.00032875,0.00005388,0.00024054,0.00026491,-0.000643
 27,-0.00011983,0.00098711,0.00216821,0.00158650,0.00119031,0.02628201,
 -0.00801351,-0.00220316,-0.00118385,-0.00295500,-0.00011292,0.00119965
 ,0.00019558,-0.00003217,-0.00002587,0.00002912,-0.00005682,0.00002299,
 -0.00010891,-0.00052297,-0.00025862,-0.00018050,0.00001596,-0.00011417
 ,-0.00015597,0.01072534,0.03303429,-0.05202487,-0.00000538,-0.00012327
 ,-0.00000585,-0.00001025,-0.00001004,0.00000833,-0.00019451,0.00013630
 ,-0.00031738,0.00002329,-0.00002375,0.00001385,-0.00002826,-0.00001109
 ,-0.00001279,0.00001387,-0.00001431,0.00000401,0.00001023,0.00000374,-
 0.00000691,-0.00001686,0.00000835,0.00002475,-0.00000607,-0.00001554,-
 0.00002247,0.00001566,-0.00002766,-0.00001808,0.00001478,0.00005991,0.
 00009945,0.00020265,-0.00002736,0.00013376,-0.00002239,-0.00006715,0.0
 0015477,0.00004272,-0.00002939,0.00008167,-0.00009778,0.00016621,0.000
 32597,0.00004683,-0.00002479,0.00014466,0.00258812,0.01116768,-0.00178
 194,-0.00622473,-0.04581998,0.05613339,-0.00004165,-0.00012438,-0.0001
 2116,-0.00192429,-0.00004815,0.00079404,-0.00032862,0.00132058,-0.0039
 1356,0.00051778,-0.01379522,-0.02287141,0.00075490,-0.00091531,0.00027
 042,-0.00014080,-0.00009010,0.00012342,-0.00014837,0.00029205,-0.00042
 626,0.00004745,0.00004434,0.00033012,0.00010323,0.00050223,0.00062524,
 -0.00044874,0.00027907,-0.00035577,-0.05104044,0.01738501,0.02677274,-
 0.00002962,0.00010721,-0.00003530,-0.00003148,0.00002080,0.00000822,0.
 00000453,0.00007134,0.00002646,0.00003314,-0.00001809,0.00007743,0.000
 01325,-0.00003436,0.00000861,-0.00016704,-0.00009085,0.00000707,-0.000
 01325,0.00001010,0.00003010,0.00003865,-0.00000532,0.00000029,0.000018
 77,-0.00000493,0.00001497,-0.00002871,0.00002226,-0.00001142,-0.000059
 15,0.00008438,-0.00021422,-0.00014317,-0.00014093,-0.00007305,0.000023
 98,-0.00012899,-0.00004374,-0.00002173,-0.00002138,0.00002839,-0.00024
 006,0.00129376,0.00018446,0.00007767,-0.00006133,0.00017759,-0.0016895
 8,0.01622871,0.02575949,0.00056386,-0.00330498,-0.00693626,0.05429950,
 -0.00016818,0.00009939,-0.00024955,0.00059404,0.00095178,-0.00015895,-
 0.00098216,-0.00115732,-0.00053807,-0.00078301,0.00825845,0.01414774,-
 0.00050039,-0.00009978,0.00043296,0.00006366,0.00010660,-0.00006858,0.
 00016674,-0.00012764,0.00021466,-0.00002912,-0.00002040,-0.00001194,-0
 .00027550,-0.00022312,0.00027941,0.00082368,-0.00062984,0.00038428,0.0
 1502123,-0.12260433,-0.12146332,-0.00003392,0.00006035,-0.00003130,0.0
 0000668,-0.00001056,0.00001947,-0.00002245,0.00000099,-0.00005972,-0.0
 0000089,0.00000287,-0.00009281,-0.00000468,-0.00000137,0.00000838,0.00
 008582,0.00005162,0.00000160,-0.00002145,-0.00000699,0.00000056,-0.000
 00592,0.00000425,-0.00000728,-0.00000093,0.00000459,0.00001184,0.00000
 380,0.00001513,-0.00000663,-0.00001976,0.00001558,-0.00001716,-0.00014
 653,-0.00016846,0.00021320,0.00006696,-0.00003602,-0.00002007,-0.00010
 539,-0.00001192,-0.00008361,0.00122703,-0.00179455,-0.00000820,-0.0001
 2047,0.00014797,-0.00004993,-0.00110582,0.00152062,0.00385512,0.005144
 46,-0.01138029,-0.02588312,-0.01887754,0.12703240,-0.00004344,-0.00025
 923,-0.00008160,-0.00144226,-0.00028525,0.00081637,0.00056319,0.002435
 14,-0.00281606,-0.00327147,-0.01188030,-0.02096177,-0.00009104,-0.0012
 4535,-0.00081314,0.00004354,0.00012641,0.00009193,-0.00014357,0.000429
 41,-0.00051793,-0.00012948,0.00014664,0.00024730,-0.00020015,-0.000009
 10,-0.00033623,0.00001078,-0.00045742,-0.00030116,0.02298669,-0.115018
 54,-0.24578559,0.00000396,0.00014505,-0.00004715,-0.00003814,0.0000207
 6,0.00002533,-0.00002518,0.00011404,0.00000428,0.00000381,-0.00000531,
 0.00007598,0.00002701,-0.00003228,0.00001068,-0.00021843,-0.00011505,-
 0.00000810,0.00000665,0.00001088,0.00004754,0.00004946,0.00000108,-0.0
 0000128,0.00001406,-0.00000677,0.00003048,-0.00001428,-0.00000008,-0.0
 0010335,0.00013396,0.00000777,0.00021302,0.00054998,0.00023420,0.00021
 280,-0.00004443,-0.00001432,0.00016031,0.00017109,-0.00007169,0.000068
 30,0.00031995,-0.00002104,0.00111383,0.00016744,-0.00004011,0.00037856
 ,0.00125250,-0.00617871,-0.00831187,-0.00040529,0.00278813,0.00654766,
 -0.02023690,0.12918104,0.27004086\\0.00001479,0.00000322,0.00000786,0.
 00001332,-0.00000825,-0.00000637,0.00000836,0.00000186,-0.00000707,-0.
 00002491,-0.00002246,0.00000900,0.00000785,0.00002243,-0.00002692,0.00
 000364,-0.00002193,-0.00000263,-0.00001486,0.00000305,0.00001045,-0.00
 000898,-0.00000468,0.00002434,0.00000742,-0.00000857,-0.00000311,-0.00
 001792,0.00002380,-0.00000027,0.00000210,0.00000570,0.00003108,0.00000
 356,-0.00000429,-0.00000619,0.00000069,0.00000398,-0.00000031,0.000003
 39,-0.00000130,-0.00000900,0.00000579,-0.00000542,-0.00000590,-0.00000
 399,0.00000326,0.00000756,-0.00000087,0.00000119,0.00000024,-0.0000011
 6,0.00000308,-0.00000031,0.00000344,-0.00001069,-0.00000083,0.00000330
 ,-0.00000478,0.00000666,0.00000654,-0.00001313,-0.00000118,-0.00000084
 ,-0.00000057,-0.00000821,0.00000058,0.00000692,-0.00000749,0.00000286,
 -0.00000166,0.00000115,0.00000053,0.00001580,-0.00000593,-0.00000448,0
 .00001061,-0.00000838,0.00000151,0.00000671,-0.00000600,-0.00000969,-0
 .00000391,0.00000428,0.00000016,0.00000219,0.00000659,-0.00000214,-0.0
 0000218,-0.00000313\\\@


                                                                                    A
                                                                                  AA
                                                                                 AAA
                                                                                AAAA
                                                                               AAAAA
                                                                              AAAAAA   KKKKKKKK
                                                                             AAAAAAA   KKKKKKKK
                                                                            AAAAAAAA   KKKKKKKK
                                       ZZZZZZZZZZZZZZZZZZZZ                AAAA  AAA   KKKKKKKK
                                       ZZZZZZZZZZZZZZZZZZZ                AAAA   AAA   KKKKKKKK          K
                                       ZZZZZZZZZZZZZZZZZZ                AAAA    AAA   KKKKKKKK         KKK
                                       ZZZZZZZZZZZZZZZZZ                AAAA     AAA   KKKKKKKK        KKKKK
                                       ZZZZZZZZZZZZZZZZ                AAAA      AAA   KKKKKKKK       KKKKKKK
                                                ZZZZZZ                AAAA       AAA   KKKKKKKK      KKKKKKK
                                               ZZZZZZ                AAAA        AAA   KKKKKKKK     KKKKKKK
                                              ZZZZZZ                AAAA         AAA   KKKKKKKK    KKKKKKK
                                             ZZZZZZ                AAAA          AAA   KKKKKKKK   KKKKKKK
                                            ZZZZZZ                AAAAAAAAAAAAAAAAAA   KKKKKKKK  KKKKKKK
                                           ZZZZZZ                AAAAAAAAAAAAAAAAAAA   KKKKKKKK KKKKKKK
                                          ZZZZZZ                AAAAAAAAAAAAAAAAAAAA   KKKKKKKKKKKKKKK
                                         ZZZZZZ                AAAAAAAAAAAAAAAAAAAAA   KKKKKKKKKKKKKK
                                        ZZZZZZ                AAAAAA        AAAAAAAA   KKKKKKKKKKKKK
                                       ZZZZZZ                AAAAAA         AAAAAAAA   KKKKKKKKKKKK
                                      ZZZZZZ                AAAAAA          AAAAAAAA   KKKKKKKKKKK
                                     ZZZZZZ                AAAAAA           AAAAAAAA   KKKKKKKKKKKK
                                    ZZZZZZ                AAAAAA            AAAAAAAA   KKKKKKKKKKKKK
                                   ZZZZZZ                AAAAAA             AAAAAAAA   KKKKKKKKKKKKKK
                                  ZZZZZZ                AAAAAA              AAAAAAAA   KKKKKKKKKKKKKKK
                                 ZZZZZZ                AAAAAA               AAAAAAAA   KKKKK KKKKKKKKKK
                                ZZZZZZ                AAAAAA                AAAAAAAA   KKKKK  KKKKKKKKKK
                               ZZZZZZ                AAAAAA                            KKKKK   KKKKKKKKKK
                              ZZZZZZ                AAAAAA                             KKKKK    KKKKKKKKKK
                             ZZZZZZ                                                    KKKKK     KKKKKKKKKK
                            ZZZZZZ                                                     KKKKK      KKKKKKKKKK
                           ZZZZZZ                                                      KKKKK       KKKKKKKKKK
                          ZZZZZZ                                                       KKKKK        KKKKKKKKKK
                         ZZZZZZZZZZZZZZZZZZZZZZZZZZZZZZZZZZZZZZZZ                      KKKKK         KKKKKKKKKK
                        ZZZZZZZZZZZZZZZZZZZZZZZZZZZZZZZZZZZZZZZZZ                      KKKKK          KKKKKKKKKK
                       ZZZZZZZZZZZZZZZZZZZZZZZZZZZZZZZZZZZZZZZZZZ                      KKKKK           KKKKKKKKKK
                       ZZZZZZZZZZZZZZZZZZZZZZZZZZZZZZZZZZZZZZZZZZ                      KKKKK            KKKKKKKKKK
                       ZZZZZZZZZZZZZZZZZZZZZZZZZZZZZZZZZZZZZZZZZZ                      KKKKK             KKKKKKKKKK
                       ZZZZZZZZZZZZZZZZZZZZZZZZZZZZZZZZZZZZZZZZZZ                      KKKKK              KKKKKKKKKK
                       ZZZZZZZZZZZZZZZZZZZZZZZZZZZZZZZZZZZZZZZZZZ                      KKKKK               KKKKKKKKKK
                       ZZZZZZZZZZZZZZZZZZZZZZZZZZZZZZZZZZZZZZZZZZ                      KKKKK                KKKKKKKKKK
                       ZZZZZZZZZZZZZZZZZZZZZZZZZZZZZZZZZZZZZZZZZZ                      KKKKK
                                                                                       KKKKK
                                                                                          (J.P.)
 Job cpu time:       0 days 18 hours 20 minutes 52.7 seconds.
 File lengths (MBytes):  RWF=    383 Int=      0 D2E=      0 Chk=     17 Scr=      1
 Normal termination of Gaussian 09 at Wed Jun  9 17:06:40 2021.
