 Entering Gaussian System, Link 0=g09
 Input=NHC29.gjf
 Output=NHC29.log
 Initial command:
 /usr/local/gqt/g09/l1.exe "/usr/local/gqt/lixogaussian/Gau-19935.inp" -scrdir="/usr/local/gqt/lixogaussian/"
 Entering Link 1 = /usr/local/gqt/g09/l1.exe PID=     19937.
  
 Copyright (c) 1988,1990,1992,1993,1995,1998,2003,2009,2013,
            Gaussian, Inc.  All Rights Reserved.
  
 This is part of the Gaussian(R) 09 program.  It is based on
 the Gaussian(R) 03 system (copyright 2003, Gaussian, Inc.),
 the Gaussian(R) 98 system (copyright 1998, Gaussian, Inc.),
 the Gaussian(R) 94 system (copyright 1995, Gaussian, Inc.),
 the Gaussian 92(TM) system (copyright 1992, Gaussian, Inc.),
 the Gaussian 90(TM) system (copyright 1990, Gaussian, Inc.),
 the Gaussian 88(TM) system (copyright 1988, Gaussian, Inc.),
 the Gaussian 86(TM) system (copyright 1986, Carnegie Mellon
 University), and the Gaussian 82(TM) system (copyright 1983,
 Carnegie Mellon University). Gaussian is a federally registered
 trademark of Gaussian, Inc.
  
 This software contains proprietary and confidential information,
 including trade secrets, belonging to Gaussian, Inc.
  
 This software is provided under written license and may be
 used, copied, transmitted, or stored only in accord with that
 written license.
  
 The following legend is applicable only to US Government
 contracts under FAR:
  
                    RESTRICTED RIGHTS LEGEND
  
 Use, reproduction and disclosure by the US Government is
 subject to restrictions as set forth in subparagraphs (a)
 and (c) of the Commercial Computer Software - Restricted
 Rights clause in FAR 52.227-19.
  
 Gaussian, Inc.
 340 Quinnipiac St., Bldg. 40, Wallingford CT 06492
  
  
 ---------------------------------------------------------------
 Warning -- This program may not be used in any manner that
 competes with the business of Gaussian, Inc. or will provide
 assistance to any competitor of Gaussian, Inc.  The licensee
 of this program is prohibited from giving any competitor of
 Gaussian, Inc. access to this program.  By using this program,
 the user acknowledges that Gaussian, Inc. is engaged in the
 business of creating and licensing software in the field of
 computational chemistry and represents and warrants to the
 licensee that it is not a competitor of Gaussian, Inc. and that
 it will not use this program in any manner prohibited above.
 ---------------------------------------------------------------
  

 Cite this work as:
 Gaussian 09, Revision D.01,
 M. J. Frisch, G. W. Trucks, H. B. Schlegel, G. E. Scuseria, 
 M. A. Robb, J. R. Cheeseman, G. Scalmani, V. Barone, B. Mennucci, 
 G. A. Petersson, H. Nakatsuji, M. Caricato, X. Li, H. P. Hratchian, 
 A. F. Izmaylov, J. Bloino, G. Zheng, J. L. Sonnenberg, M. Hada, 
 M. Ehara, K. Toyota, R. Fukuda, J. Hasegawa, M. Ishida, T. Nakajima, 
 Y. Honda, O. Kitao, H. Nakai, T. Vreven, J. A. Montgomery, Jr., 
 J. E. Peralta, F. Ogliaro, M. Bearpark, J. J. Heyd, E. Brothers, 
 K. N. Kudin, V. N. Staroverov, T. Keith, R. Kobayashi, J. Normand, 
 K. Raghavachari, A. Rendell, J. C. Burant, S. S. Iyengar, J. Tomasi, 
 M. Cossi, N. Rega, J. M. Millam, M. Klene, J. E. Knox, J. B. Cross, 
 V. Bakken, C. Adamo, J. Jaramillo, R. Gomperts, R. E. Stratmann, 
 O. Yazyev, A. J. Austin, R. Cammi, C. Pomelli, J. W. Ochterski, 
 R. L. Martin, K. Morokuma, V. G. Zakrzewski, G. A. Voth, 
 P. Salvador, J. J. Dannenberg, S. Dapprich, A. D. Daniels, 
 O. Farkas, J. B. Foresman, J. V. Ortiz, J. Cioslowski, 
 and D. J. Fox, Gaussian, Inc., Wallingford CT, 2013.
 
 ******************************************
 Gaussian 09:  ES64L-G09RevD.01 24-Apr-2013
                13-Nov-2021 
 ******************************************
 %nprocshared=16
 Will use up to   16 processors via shared memory.
 %mem=50GB
 %chk=NHC29.chk
 ----------------------------------------------------------
 #p opt freq n12sx/6-311+g(d,p) scrf=(iefpcm,solvent=water)
 ----------------------------------------------------------
 1/14=-1,18=20,19=15,26=3,38=1/1,3;
 2/9=110,12=2,17=6,18=5,40=1/2;
 3/5=4,6=6,7=111,11=2,16=1,25=1,30=1,70=2201,71=1,72=1,74=-69/1,2,3;
 4//1;
 5/5=2,38=5,53=1/2;
 6/7=2,8=2,9=2,10=2,28=1/1;
 7//1,2,3,16;
 1/14=-1,18=20,19=15,26=3/3(2);
 2/9=110/2;
 99//99;
 2/9=110/2;
 3/5=4,6=6,7=111,11=2,16=1,25=1,30=1,70=2205,71=1,72=1,74=-69/1,2,3;
 4/5=5,16=3,69=1/1;
 5/5=2,38=5,53=1/2;
 7//1,2,3,16;
 1/14=-1,18=20,19=15,26=3/3(-5);
 2/9=110/2;
 6/7=2,8=2,9=2,10=2,19=2,28=1/1;
 99/9=1/99;
 Leave Link    1 at Sat Nov 13 16:53:04 2021, MaxMem=  6710886400 cpu:         0.8
 (Enter /usr/local/gqt/g09/l101.exe)
 -----
 TITLE
 -----
 Symbolic Z-matrix:
 Charge =  0 Multiplicity = 1
 7                    -1.05919  -0.00012   0.43465 
 6                    -0.67332  -0.00029   1.76406 
 6                     0.67332  -0.00014   1.76405 
 7                     1.05917   0.00007   0.43464 
 6                    -0.00001   0.00009  -0.41943 
 6                     2.42552   0.00017   0.01294 
 6                    -2.42554  -0.00018   0.01298 
 6                    -3.0741    1.22501  -0.17811 
 6                    -4.40835   1.1983   -0.57188 
 6                    -5.07132  -0.00027  -0.76748 
 6                    -4.40807  -1.19879  -0.57252 
 6                    -3.07381  -1.22541  -0.17881 
 6                     3.07411  -1.22499  -0.17822 
 6                     4.40836  -1.1982   -0.57197 
 6                     5.07128   0.00039  -0.76757 
 6                     4.40799   1.19888  -0.5726 
 6                     3.07373   1.22544  -0.17883 
 6                    -2.38119   2.55211   0.03866 
 6                    -2.4138    3.41838  -1.21905 
 6                    -2.97893   3.2959    1.2327 
 6                    -2.38059  -2.55246   0.03727 
 6                    -2.97763  -3.29663   1.23142 
 6                    -2.41372  -3.41848  -1.2206 
 6                     2.38126  -2.55211   0.03853 
 6                     2.41471  -3.41882  -1.21884 
 6                     2.97846  -3.29542   1.23315 
 6                     2.38048   2.55246   0.03736 
 6                     2.97741   3.29639   1.23173 
 6                     2.41372   3.4187   -1.22034 
 1                    -1.3768   -0.00031   2.57444 
 1                    -4.93513   2.12842  -0.72646 
 1                    -6.10739  -0.00031  -1.07303 
 1                    -4.93466  -2.12894  -0.72757 
 1                     4.93519  -2.1283   -0.72656 
 1                     6.10735   0.00047  -1.07314 
 1                     4.93452   2.12906  -0.72767 
 1                    -1.33709   2.35115   0.26601 
 1                    -1.85974   4.34102  -1.05309 
 1                    -1.96546   2.90173  -2.06554 
 1                    -3.43296   3.68977  -1.4913 
 1                    -2.44229   4.22792   1.40506 
 1                    -2.91971   2.6986    2.14089 
 1                    -4.02628   3.54094   1.0595 
 1                    -1.3364   -2.35139   0.26413 
 1                    -4.02507  -3.54168   1.0587 
 1                    -2.44083  -4.22866   1.4032 
 1                    -2.91796  -2.69961   2.13976 
 1                    -3.43296  -3.69006  -1.49232 
 1                    -1.85936  -4.34102  -1.05509 
 1                    -1.96596  -2.90158  -2.06724 
 1                     1.33699  -2.35122   0.2652 
 1                     1.96689  -2.9025   -2.06581 
 1                     3.43402  -3.69034  -1.49036 
 1                     1.86054  -4.34139  -1.05287 
 1                     2.91861  -2.69788   2.14113 
 1                     4.02597  -3.54026   1.06059 
 1                     2.44192  -4.2275    1.40548 
 1                     1.33627   2.35135   0.26406 
 1                     2.91767   2.69919   2.13994 
 1                     4.02487   3.54145   1.05913 
 1                     2.44062   4.2284    1.40366 
 1                     3.43296   3.69042  -1.49191 
 1                     1.85927   4.34118  -1.05474 
 1                     1.96608   2.90194  -2.06713 
 1                    -0.00002   0.00024  -1.49943 
 
 NAtoms=     65 NQM=       65 NQMF=       0 NMMI=      0 NMMIF=      0
                NMic=       0 NMicF=      0.
                    Isotopes and Nuclear Properties:
 (Nuclear quadrupole moments (NQMom) in fm**2, nuclear magnetic moments (NMagM)
  in nuclear magnetons)

  Atom         1           2           3           4           5           6           7           8           9          10
 IAtWgt=          14          12          12          14          12          12          12          12          12          12
 AtmWgt=  14.0030740  12.0000000  12.0000000  14.0030740  12.0000000  12.0000000  12.0000000  12.0000000  12.0000000  12.0000000
 NucSpn=           2           0           0           2           0           0           0           0           0           0
 AtZEff=   0.0000000   0.0000000   0.0000000   0.0000000   0.0000000   0.0000000   0.0000000   0.0000000   0.0000000   0.0000000
 NQMom=    2.0440000   0.0000000   0.0000000   2.0440000   0.0000000   0.0000000   0.0000000   0.0000000   0.0000000   0.0000000
 NMagM=    0.4037610   0.0000000   0.0000000   0.4037610   0.0000000   0.0000000   0.0000000   0.0000000   0.0000000   0.0000000
 AtZNuc=   7.0000000   6.0000000   6.0000000   7.0000000   6.0000000   6.0000000   6.0000000   6.0000000   6.0000000   6.0000000

  Atom        11          12          13          14          15          16          17          18          19          20
 IAtWgt=          12          12          12          12          12          12          12          12          12          12
 AtmWgt=  12.0000000  12.0000000  12.0000000  12.0000000  12.0000000  12.0000000  12.0000000  12.0000000  12.0000000  12.0000000
 NucSpn=           0           0           0           0           0           0           0           0           0           0
 AtZEff=   0.0000000   0.0000000   0.0000000   0.0000000   0.0000000   0.0000000   0.0000000   0.0000000   0.0000000   0.0000000
 NQMom=    0.0000000   0.0000000   0.0000000   0.0000000   0.0000000   0.0000000   0.0000000   0.0000000   0.0000000   0.0000000
 NMagM=    0.0000000   0.0000000   0.0000000   0.0000000   0.0000000   0.0000000   0.0000000   0.0000000   0.0000000   0.0000000
 AtZNuc=   6.0000000   6.0000000   6.0000000   6.0000000   6.0000000   6.0000000   6.0000000   6.0000000   6.0000000   6.0000000

  Atom        21          22          23          24          25          26          27          28          29          30
 IAtWgt=          12          12          12          12          12          12          12          12          12           1
 AtmWgt=  12.0000000  12.0000000  12.0000000  12.0000000  12.0000000  12.0000000  12.0000000  12.0000000  12.0000000   1.0078250
 NucSpn=           0           0           0           0           0           0           0           0           0           1
 AtZEff=   0.0000000   0.0000000   0.0000000   0.0000000   0.0000000   0.0000000   0.0000000   0.0000000   0.0000000   0.0000000
 NQMom=    0.0000000   0.0000000   0.0000000   0.0000000   0.0000000   0.0000000   0.0000000   0.0000000   0.0000000   0.0000000
 NMagM=    0.0000000   0.0000000   0.0000000   0.0000000   0.0000000   0.0000000   0.0000000   0.0000000   0.0000000   2.7928460
 AtZNuc=   6.0000000   6.0000000   6.0000000   6.0000000   6.0000000   6.0000000   6.0000000   6.0000000   6.0000000   1.0000000

  Atom        31          32          33          34          35          36          37          38          39          40
 IAtWgt=           1           1           1           1           1           1           1           1           1           1
 AtmWgt=   1.0078250   1.0078250   1.0078250   1.0078250   1.0078250   1.0078250   1.0078250   1.0078250   1.0078250   1.0078250
 NucSpn=           1           1           1           1           1           1           1           1           1           1
 AtZEff=   0.0000000   0.0000000   0.0000000   0.0000000   0.0000000   0.0000000   0.0000000   0.0000000   0.0000000   0.0000000
 NQMom=    0.0000000   0.0000000   0.0000000   0.0000000   0.0000000   0.0000000   0.0000000   0.0000000   0.0000000   0.0000000
 NMagM=    2.7928460   2.7928460   2.7928460   2.7928460   2.7928460   2.7928460   2.7928460   2.7928460   2.7928460   2.7928460
 AtZNuc=   1.0000000   1.0000000   1.0000000   1.0000000   1.0000000   1.0000000   1.0000000   1.0000000   1.0000000   1.0000000

  Atom        41          42          43          44          45          46          47          48          49          50
 IAtWgt=           1           1           1           1           1           1           1           1           1           1
 AtmWgt=   1.0078250   1.0078250   1.0078250   1.0078250   1.0078250   1.0078250   1.0078250   1.0078250   1.0078250   1.0078250
 NucSpn=           1           1           1           1           1           1           1           1           1           1
 AtZEff=   0.0000000   0.0000000   0.0000000   0.0000000   0.0000000   0.0000000   0.0000000   0.0000000   0.0000000   0.0000000
 NQMom=    0.0000000   0.0000000   0.0000000   0.0000000   0.0000000   0.0000000   0.0000000   0.0000000   0.0000000   0.0000000
 NMagM=    2.7928460   2.7928460   2.7928460   2.7928460   2.7928460   2.7928460   2.7928460   2.7928460   2.7928460   2.7928460
 AtZNuc=   1.0000000   1.0000000   1.0000000   1.0000000   1.0000000   1.0000000   1.0000000   1.0000000   1.0000000   1.0000000

  Atom        51          52          53          54          55          56          57          58          59          60
 IAtWgt=           1           1           1           1           1           1           1           1           1           1
 AtmWgt=   1.0078250   1.0078250   1.0078250   1.0078250   1.0078250   1.0078250   1.0078250   1.0078250   1.0078250   1.0078250
 NucSpn=           1           1           1           1           1           1           1           1           1           1
 AtZEff=   0.0000000   0.0000000   0.0000000   0.0000000   0.0000000   0.0000000   0.0000000   0.0000000   0.0000000   0.0000000
 NQMom=    0.0000000   0.0000000   0.0000000   0.0000000   0.0000000   0.0000000   0.0000000   0.0000000   0.0000000   0.0000000
 NMagM=    2.7928460   2.7928460   2.7928460   2.7928460   2.7928460   2.7928460   2.7928460   2.7928460   2.7928460   2.7928460
 AtZNuc=   1.0000000   1.0000000   1.0000000   1.0000000   1.0000000   1.0000000   1.0000000   1.0000000   1.0000000   1.0000000

  Atom        61          62          63          64          65
 IAtWgt=           1           1           1           1           1
 AtmWgt=   1.0078250   1.0078250   1.0078250   1.0078250   1.0078250
 NucSpn=           1           1           1           1           1
 AtZEff=   0.0000000   0.0000000   0.0000000   0.0000000   0.0000000
 NQMom=    0.0000000   0.0000000   0.0000000   0.0000000   0.0000000
 NMagM=    2.7928460   2.7928460   2.7928460   2.7928460   2.7928460
 AtZNuc=   1.0000000   1.0000000   1.0000000   1.0000000   1.0000000
 Leave Link  101 at Sat Nov 13 16:53:04 2021, MaxMem=  6710886400 cpu:         7.1
 (Enter /usr/local/gqt/g09/l103.exe)

 GradGradGradGradGradGradGradGradGradGradGradGradGradGradGradGradGradGrad
 Berny optimization.
 Initialization pass.
                           ----------------------------
                           !    Initial Parameters    !
                           ! (Angstroms and Degrees)  !
 --------------------------                            --------------------------
 ! Name  Definition              Value          Derivative Info.                !
 --------------------------------------------------------------------------------
 ! R1    R(1,2)                  1.3843         estimate D2E/DX2                !
 ! R2    R(1,5)                  1.3606         estimate D2E/DX2                !
 ! R3    R(1,7)                  1.4299         estimate D2E/DX2                !
 ! R4    R(2,3)                  1.3466         estimate D2E/DX2                !
 ! R5    R(2,30)                 1.0731         estimate D2E/DX2                !
 ! R6    R(3,4)                  1.3843         estimate D2E/DX2                !
 ! R7    R(4,5)                  1.3606         estimate D2E/DX2                !
 ! R8    R(4,6)                  1.4299         estimate D2E/DX2                !
 ! R9    R(5,65)                 1.08           estimate D2E/DX2                !
 ! R10   R(6,13)                 1.3994         estimate D2E/DX2                !
 ! R11   R(6,17)                 1.3994         estimate D2E/DX2                !
 ! R12   R(7,8)                  1.3994         estimate D2E/DX2                !
 ! R13   R(7,12)                 1.3994         estimate D2E/DX2                !
 ! R14   R(8,9)                  1.3914         estimate D2E/DX2                !
 ! R15   R(8,18)                 1.5127         estimate D2E/DX2                !
 ! R16   R(9,10)                 1.3836         estimate D2E/DX2                !
 ! R17   R(9,31)                 1.0801         estimate D2E/DX2                !
 ! R18   R(10,11)                1.3836         estimate D2E/DX2                !
 ! R19   R(10,32)                1.0802         estimate D2E/DX2                !
 ! R20   R(11,12)                1.3914         estimate D2E/DX2                !
 ! R21   R(11,33)                1.0801         estimate D2E/DX2                !
 ! R22   R(12,21)                1.5127         estimate D2E/DX2                !
 ! R23   R(13,14)                1.3914         estimate D2E/DX2                !
 ! R24   R(13,24)                1.5127         estimate D2E/DX2                !
 ! R25   R(14,15)                1.3836         estimate D2E/DX2                !
 ! R26   R(14,34)                1.0801         estimate D2E/DX2                !
 ! R27   R(15,16)                1.3836         estimate D2E/DX2                !
 ! R28   R(15,35)                1.0802         estimate D2E/DX2                !
 ! R29   R(16,17)                1.3914         estimate D2E/DX2                !
 ! R30   R(16,36)                1.0801         estimate D2E/DX2                !
 ! R31   R(17,27)                1.5127         estimate D2E/DX2                !
 ! R32   R(18,19)                1.5275         estimate D2E/DX2                !
 ! R33   R(18,20)                1.5285         estimate D2E/DX2                !
 ! R34   R(18,37)                1.0873         estimate D2E/DX2                !
 ! R35   R(19,38)                1.0889         estimate D2E/DX2                !
 ! R36   R(19,39)                1.0883         estimate D2E/DX2                !
 ! R37   R(19,40)                1.0892         estimate D2E/DX2                !
 ! R38   R(20,41)                1.0892         estimate D2E/DX2                !
 ! R39   R(20,42)                1.0886         estimate D2E/DX2                !
 ! R40   R(20,43)                1.0895         estimate D2E/DX2                !
 ! R41   R(21,22)                1.5285         estimate D2E/DX2                !
 ! R42   R(21,23)                1.5275         estimate D2E/DX2                !
 ! R43   R(21,44)                1.0873         estimate D2E/DX2                !
 ! R44   R(22,45)                1.0895         estimate D2E/DX2                !
 ! R45   R(22,46)                1.0892         estimate D2E/DX2                !
 ! R46   R(22,47)                1.0886         estimate D2E/DX2                !
 ! R47   R(23,48)                1.0892         estimate D2E/DX2                !
 ! R48   R(23,49)                1.0889         estimate D2E/DX2                !
 ! R49   R(23,50)                1.0883         estimate D2E/DX2                !
 ! R50   R(24,25)                1.5275         estimate D2E/DX2                !
 ! R51   R(24,26)                1.5285         estimate D2E/DX2                !
 ! R52   R(24,51)                1.0873         estimate D2E/DX2                !
 ! R53   R(25,52)                1.0883         estimate D2E/DX2                !
 ! R54   R(25,53)                1.0892         estimate D2E/DX2                !
 ! R55   R(25,54)                1.0889         estimate D2E/DX2                !
 ! R56   R(26,55)                1.0886         estimate D2E/DX2                !
 ! R57   R(26,56)                1.0895         estimate D2E/DX2                !
 ! R58   R(26,57)                1.0892         estimate D2E/DX2                !
 ! R59   R(27,28)                1.5285         estimate D2E/DX2                !
 ! R60   R(27,29)                1.5275         estimate D2E/DX2                !
 ! R61   R(27,58)                1.0873         estimate D2E/DX2                !
 ! R62   R(28,59)                1.0886         estimate D2E/DX2                !
 ! R63   R(28,60)                1.0895         estimate D2E/DX2                !
 ! R64   R(28,61)                1.0892         estimate D2E/DX2                !
 ! R65   R(29,62)                1.0892         estimate D2E/DX2                !
 ! R66   R(29,63)                1.0889         estimate D2E/DX2                !
 ! R67   R(29,64)                1.0883         estimate D2E/DX2                !
 ! A1    A(2,1,5)              112.6955         estimate D2E/DX2                !
 ! A2    A(2,1,7)              123.3368         estimate D2E/DX2                !
 ! A3    A(5,1,7)              123.9677         estimate D2E/DX2                !
 ! A4    A(1,2,3)              106.1856         estimate D2E/DX2                !
 ! A5    A(1,2,30)             122.8534         estimate D2E/DX2                !
 ! A6    A(3,2,30)             130.961          estimate D2E/DX2                !
 ! A7    A(2,3,4)              106.1855         estimate D2E/DX2                !
 ! A8    A(3,4,5)              112.6955         estimate D2E/DX2                !
 ! A9    A(3,4,6)              123.3372         estimate D2E/DX2                !
 ! A10   A(5,4,6)              123.9673         estimate D2E/DX2                !
 ! A11   A(1,5,4)              102.2379         estimate D2E/DX2                !
 ! A12   A(1,5,65)             128.881          estimate D2E/DX2                !
 ! A13   A(4,5,65)             128.881          estimate D2E/DX2                !
 ! A14   A(4,6,13)             118.8878         estimate D2E/DX2                !
 ! A15   A(4,6,17)             118.8879         estimate D2E/DX2                !
 ! A16   A(13,6,17)            122.2195         estimate D2E/DX2                !
 ! A17   A(1,7,8)              118.8871         estimate D2E/DX2                !
 ! A18   A(1,7,12)             118.8885         estimate D2E/DX2                !
 ! A19   A(8,7,12)             122.2196         estimate D2E/DX2                !
 ! A20   A(7,8,9)              117.7922         estimate D2E/DX2                !
 ! A21   A(7,8,18)             122.4281         estimate D2E/DX2                !
 ! A22   A(9,8,18)             119.7778         estimate D2E/DX2                !
 ! A23   A(8,9,10)             121.0723         estimate D2E/DX2                !
 ! A24   A(8,9,31)             119.4508         estimate D2E/DX2                !
 ! A25   A(10,9,31)            119.4769         estimate D2E/DX2                !
 ! A26   A(9,10,11)            120.0514         estimate D2E/DX2                !
 ! A27   A(9,10,32)            119.9746         estimate D2E/DX2                !
 ! A28   A(11,10,32)           119.974          estimate D2E/DX2                !
 ! A29   A(10,11,12)           121.0727         estimate D2E/DX2                !
 ! A30   A(10,11,33)           119.4763         estimate D2E/DX2                !
 ! A31   A(12,11,33)           119.451          estimate D2E/DX2                !
 ! A32   A(7,12,11)            117.7917         estimate D2E/DX2                !
 ! A33   A(7,12,21)            122.4277         estimate D2E/DX2                !
 ! A34   A(11,12,21)           119.7785         estimate D2E/DX2                !
 ! A35   A(6,13,14)            117.7919         estimate D2E/DX2                !
 ! A36   A(6,13,24)            122.4279         estimate D2E/DX2                !
 ! A37   A(14,13,24)           119.7783         estimate D2E/DX2                !
 ! A38   A(13,14,15)           121.0727         estimate D2E/DX2                !
 ! A39   A(13,14,34)           119.4508         estimate D2E/DX2                !
 ! A40   A(15,14,34)           119.4765         estimate D2E/DX2                !
 ! A41   A(14,15,16)           120.0516         estimate D2E/DX2                !
 ! A42   A(14,15,35)           119.974          estimate D2E/DX2                !
 ! A43   A(16,15,35)           119.9744         estimate D2E/DX2                !
 ! A44   A(15,16,17)           121.0723         estimate D2E/DX2                !
 ! A45   A(15,16,36)           119.4769         estimate D2E/DX2                !
 ! A46   A(17,16,36)           119.4508         estimate D2E/DX2                !
 ! A47   A(6,17,16)            117.7921         estimate D2E/DX2                !
 ! A48   A(6,17,27)            122.4273         estimate D2E/DX2                !
 ! A49   A(16,17,27)           119.7786         estimate D2E/DX2                !
 ! A50   A(8,18,19)            111.7003         estimate D2E/DX2                !
 ! A51   A(8,18,20)            111.0828         estimate D2E/DX2                !
 ! A52   A(8,18,37)            107.9191         estimate D2E/DX2                !
 ! A53   A(19,18,20)           111.0327         estimate D2E/DX2                !
 ! A54   A(19,18,37)           107.3063         estimate D2E/DX2                !
 ! A55   A(20,18,37)           107.5857         estimate D2E/DX2                !
 ! A56   A(18,19,38)           110.1296         estimate D2E/DX2                !
 ! A57   A(18,19,39)           111.2473         estimate D2E/DX2                !
 ! A58   A(18,19,40)           111.5355         estimate D2E/DX2                !
 ! A59   A(38,19,39)           108.1279         estimate D2E/DX2                !
 ! A60   A(38,19,40)           107.641          estimate D2E/DX2                !
 ! A61   A(39,19,40)           108.0188         estimate D2E/DX2                !
 ! A62   A(18,20,41)           110.3246         estimate D2E/DX2                !
 ! A63   A(18,20,42)           111.3126         estimate D2E/DX2                !
 ! A64   A(18,20,43)           111.1741         estimate D2E/DX2                !
 ! A65   A(41,20,42)           108.1001         estimate D2E/DX2                !
 ! A66   A(41,20,43)           107.8384         estimate D2E/DX2                !
 ! A67   A(42,20,43)           107.9585         estimate D2E/DX2                !
 ! A68   A(12,21,22)           111.0824         estimate D2E/DX2                !
 ! A69   A(12,21,23)           111.7031         estimate D2E/DX2                !
 ! A70   A(12,21,44)           107.9188         estimate D2E/DX2                !
 ! A71   A(22,21,23)           111.0297         estimate D2E/DX2                !
 ! A72   A(22,21,44)           107.5867         estimate D2E/DX2                !
 ! A73   A(23,21,44)           107.3061         estimate D2E/DX2                !
 ! A74   A(21,22,45)           111.1728         estimate D2E/DX2                !
 ! A75   A(21,22,46)           110.3235         estimate D2E/DX2                !
 ! A76   A(21,22,47)           111.3134         estimate D2E/DX2                !
 ! A77   A(45,22,46)           107.8396         estimate D2E/DX2                !
 ! A78   A(45,22,47)           107.9587         estimate D2E/DX2                !
 ! A79   A(46,22,47)           108.1003         estimate D2E/DX2                !
 ! A80   A(21,23,48)           111.5356         estimate D2E/DX2                !
 ! A81   A(21,23,49)           110.1276         estimate D2E/DX2                !
 ! A82   A(21,23,50)           111.2483         estimate D2E/DX2                !
 ! A83   A(48,23,49)           107.6405         estimate D2E/DX2                !
 ! A84   A(48,23,50)           108.0195         estimate D2E/DX2                !
 ! A85   A(49,23,50)           108.1287         estimate D2E/DX2                !
 ! A86   A(13,24,25)           111.704          estimate D2E/DX2                !
 ! A87   A(13,24,26)           111.0802         estimate D2E/DX2                !
 ! A88   A(13,24,51)           107.919          estimate D2E/DX2                !
 ! A89   A(25,24,26)           111.0307         estimate D2E/DX2                !
 ! A90   A(25,24,51)           107.3051         estimate D2E/DX2                !
 ! A91   A(26,24,51)           107.5879         estimate D2E/DX2                !
 ! A92   A(24,25,52)           111.2476         estimate D2E/DX2                !
 ! A93   A(24,25,53)           111.5379         estimate D2E/DX2                !
 ! A94   A(24,25,54)           110.127          estimate D2E/DX2                !
 ! A95   A(52,25,53)           108.019          estimate D2E/DX2                !
 ! A96   A(52,25,54)           108.1286         estimate D2E/DX2                !
 ! A97   A(53,25,54)           107.6401         estimate D2E/DX2                !
 ! A98   A(24,26,55)           111.3139         estimate D2E/DX2                !
 ! A99   A(24,26,56)           111.1714         estimate D2E/DX2                !
 ! A100  A(24,26,57)           110.3251         estimate D2E/DX2                !
 ! A101  A(55,26,56)           107.958          estimate D2E/DX2                !
 ! A102  A(55,26,57)           108.1            estimate D2E/DX2                !
 ! A103  A(56,26,57)           107.8398         estimate D2E/DX2                !
 ! A104  A(17,27,28)           111.0795         estimate D2E/DX2                !
 ! A105  A(17,27,29)           111.7055         estimate D2E/DX2                !
 ! A106  A(17,27,58)           107.9188         estimate D2E/DX2                !
 ! A107  A(28,27,29)           111.0307         estimate D2E/DX2                !
 ! A108  A(28,27,58)           107.5877         estimate D2E/DX2                !
 ! A109  A(29,27,58)           107.3047         estimate D2E/DX2                !
 ! A110  A(27,28,59)           111.3137         estimate D2E/DX2                !
 ! A111  A(27,28,60)           111.1714         estimate D2E/DX2                !
 ! A112  A(27,28,61)           110.3252         estimate D2E/DX2                !
 ! A113  A(59,28,60)           107.9583         estimate D2E/DX2                !
 ! A114  A(59,28,61)           108.1            estimate D2E/DX2                !
 ! A115  A(60,28,61)           107.8396         estimate D2E/DX2                !
 ! A116  A(27,29,62)           111.5376         estimate D2E/DX2                !
 ! A117  A(27,29,63)           110.1277         estimate D2E/DX2                !
 ! A118  A(27,29,64)           111.2482         estimate D2E/DX2                !
 ! A119  A(62,29,63)           107.6396         estimate D2E/DX2                !
 ! A120  A(62,29,64)           108.0191         estimate D2E/DX2                !
 ! A121  A(63,29,64)           108.1278         estimate D2E/DX2                !
 ! D1    D(5,1,2,3)              0.0026         estimate D2E/DX2                !
 ! D2    D(5,1,2,30)           179.9903         estimate D2E/DX2                !
 ! D3    D(7,1,2,3)           -179.9988         estimate D2E/DX2                !
 ! D4    D(7,1,2,30)            -0.0111         estimate D2E/DX2                !
 ! D5    D(2,1,5,4)             -0.0013         estimate D2E/DX2                !
 ! D6    D(2,1,5,65)           179.9987         estimate D2E/DX2                !
 ! D7    D(7,1,5,4)           -179.9999         estimate D2E/DX2                !
 ! D8    D(7,1,5,65)             0.0001         estimate D2E/DX2                !
 ! D9    D(2,1,7,8)             89.605          estimate D2E/DX2                !
 ! D10   D(2,1,7,12)           -89.6195         estimate D2E/DX2                !
 ! D11   D(5,1,7,8)            -90.3966         estimate D2E/DX2                !
 ! D12   D(5,1,7,12)            90.379          estimate D2E/DX2                !
 ! D13   D(1,2,3,4)             -0.0027         estimate D2E/DX2                !
 ! D14   D(30,2,3,4)          -179.9889         estimate D2E/DX2                !
 ! D15   D(2,3,4,5)              0.0021         estimate D2E/DX2                !
 ! D16   D(2,3,4,6)           -179.9953         estimate D2E/DX2                !
 ! D17   D(3,4,5,1)             -0.0005         estimate D2E/DX2                !
 ! D18   D(3,4,5,65)           179.9995         estimate D2E/DX2                !
 ! D19   D(6,4,5,1)            179.9969         estimate D2E/DX2                !
 ! D20   D(6,4,5,65)            -0.0031         estimate D2E/DX2                !
 ! D21   D(3,4,6,13)            89.59           estimate D2E/DX2                !
 ! D22   D(3,4,6,17)           -89.6367         estimate D2E/DX2                !
 ! D23   D(5,4,6,13)           -90.4071         estimate D2E/DX2                !
 ! D24   D(5,4,6,17)            90.3662         estimate D2E/DX2                !
 ! D25   D(4,6,13,14)         -179.1888         estimate D2E/DX2                !
 ! D26   D(4,6,13,24)            0.2937         estimate D2E/DX2                !
 ! D27   D(17,6,13,14)           0.0109         estimate D2E/DX2                !
 ! D28   D(17,6,13,24)         179.4934         estimate D2E/DX2                !
 ! D29   D(4,6,17,16)          179.1904         estimate D2E/DX2                !
 ! D30   D(4,6,17,27)           -0.2893         estimate D2E/DX2                !
 ! D31   D(13,6,17,16)          -0.0093         estimate D2E/DX2                !
 ! D32   D(13,6,17,27)        -179.489          estimate D2E/DX2                !
 ! D33   D(1,7,8,9)           -179.1907         estimate D2E/DX2                !
 ! D34   D(1,7,8,18)             0.2959         estimate D2E/DX2                !
 ! D35   D(12,7,8,9)             0.0067         estimate D2E/DX2                !
 ! D36   D(12,7,8,18)          179.4934         estimate D2E/DX2                !
 ! D37   D(1,7,12,11)          179.1885         estimate D2E/DX2                !
 ! D38   D(1,7,12,21)           -0.2929         estimate D2E/DX2                !
 ! D39   D(8,7,12,11)           -0.0089         estimate D2E/DX2                !
 ! D40   D(8,7,12,21)         -179.4903         estimate D2E/DX2                !
 ! D41   D(7,8,9,10)             0.017          estimate D2E/DX2                !
 ! D42   D(7,8,9,31)           179.9627         estimate D2E/DX2                !
 ! D43   D(18,8,9,10)         -179.4838         estimate D2E/DX2                !
 ! D44   D(18,8,9,31)            0.462          estimate D2E/DX2                !
 ! D45   D(7,8,18,19)          122.4301         estimate D2E/DX2                !
 ! D46   D(7,8,18,20)         -113.0003         estimate D2E/DX2                !
 ! D47   D(7,8,18,37)            4.7084         estimate D2E/DX2                !
 ! D48   D(9,8,18,19)          -58.0932         estimate D2E/DX2                !
 ! D49   D(9,8,18,20)           66.4765         estimate D2E/DX2                !
 ! D50   D(9,8,18,37)         -175.8148         estimate D2E/DX2                !
 ! D51   D(8,9,10,11)           -0.0383         estimate D2E/DX2                !
 ! D52   D(8,9,10,32)          179.987          estimate D2E/DX2                !
 ! D53   D(31,9,10,11)        -179.984          estimate D2E/DX2                !
 ! D54   D(31,9,10,32)           0.0412         estimate D2E/DX2                !
 ! D55   D(9,10,11,12)           0.036          estimate D2E/DX2                !
 ! D56   D(9,10,11,33)         179.9822         estimate D2E/DX2                !
 ! D57   D(32,10,11,12)       -179.9892         estimate D2E/DX2                !
 ! D58   D(32,10,11,33)         -0.043          estimate D2E/DX2                !
 ! D59   D(10,11,12,7)          -0.0126         estimate D2E/DX2                !
 ! D60   D(10,11,12,21)        179.4831         estimate D2E/DX2                !
 ! D61   D(33,11,12,7)        -179.9588         estimate D2E/DX2                !
 ! D62   D(33,11,12,21)         -0.4631         estimate D2E/DX2                !
 ! D63   D(7,12,21,22)         112.9645         estimate D2E/DX2                !
 ! D64   D(7,12,21,23)        -122.468          estimate D2E/DX2                !
 ! D65   D(7,12,21,44)          -4.7452         estimate D2E/DX2                !
 ! D66   D(11,12,21,22)        -66.507          estimate D2E/DX2                !
 ! D67   D(11,12,21,23)         58.0605         estimate D2E/DX2                !
 ! D68   D(11,12,21,44)        175.7833         estimate D2E/DX2                !
 ! D69   D(6,13,14,15)           0.0125         estimate D2E/DX2                !
 ! D70   D(6,13,14,34)         179.9593         estimate D2E/DX2                !
 ! D71   D(24,13,14,15)       -179.4843         estimate D2E/DX2                !
 ! D72   D(24,13,14,34)          0.4626         estimate D2E/DX2                !
 ! D73   D(6,13,24,25)         122.4728         estimate D2E/DX2                !
 ! D74   D(6,13,24,26)        -112.9593         estimate D2E/DX2                !
 ! D75   D(6,13,24,51)           4.7507         estimate D2E/DX2                !
 ! D76   D(14,13,24,25)        -58.0546         estimate D2E/DX2                !
 ! D77   D(14,13,24,26)         66.5133         estimate D2E/DX2                !
 ! D78   D(14,13,24,51)       -175.7768         estimate D2E/DX2                !
 ! D79   D(13,14,15,16)         -0.0371         estimate D2E/DX2                !
 ! D80   D(13,14,15,35)        179.9888         estimate D2E/DX2                !
 ! D81   D(34,14,15,16)       -179.9839         estimate D2E/DX2                !
 ! D82   D(34,14,15,35)          0.042          estimate D2E/DX2                !
 ! D83   D(14,15,16,17)          0.0388         estimate D2E/DX2                !
 ! D84   D(14,15,16,36)        179.9834         estimate D2E/DX2                !
 ! D85   D(35,15,16,17)       -179.9871         estimate D2E/DX2                !
 ! D86   D(35,15,16,36)         -0.0425         estimate D2E/DX2                !
 ! D87   D(15,16,17,6)          -0.0157         estimate D2E/DX2                !
 ! D88   D(15,16,17,27)        179.4783         estimate D2E/DX2                !
 ! D89   D(36,16,17,6)        -179.9604         estimate D2E/DX2                !
 ! D90   D(36,16,17,27)         -0.4664         estimate D2E/DX2                !
 ! D91   D(6,17,27,28)         112.9512         estimate D2E/DX2                !
 ! D92   D(6,17,27,29)        -122.4803         estimate D2E/DX2                !
 ! D93   D(6,17,27,58)          -4.7579         estimate D2E/DX2                !
 ! D94   D(16,17,27,28)        -66.5185         estimate D2E/DX2                !
 ! D95   D(16,17,27,29)         58.05           estimate D2E/DX2                !
 ! D96   D(16,17,27,58)        175.7724         estimate D2E/DX2                !
 ! D97   D(8,18,19,38)        -176.7486         estimate D2E/DX2                !
 ! D98   D(8,18,19,39)         -56.8764         estimate D2E/DX2                !
 ! D99   D(8,18,19,40)          63.8033         estimate D2E/DX2                !
 ! D100  D(20,18,19,38)         58.6538         estimate D2E/DX2                !
 ! D101  D(20,18,19,39)        178.526          estimate D2E/DX2                !
 ! D102  D(20,18,19,40)        -60.7944         estimate D2E/DX2                !
 ! D103  D(37,18,19,38)        -58.6596         estimate D2E/DX2                !
 ! D104  D(37,18,19,39)         61.2126         estimate D2E/DX2                !
 ! D105  D(37,18,19,40)       -178.1078         estimate D2E/DX2                !
 ! D106  D(8,18,20,41)         177.4635         estimate D2E/DX2                !
 ! D107  D(8,18,20,42)          57.4548         estimate D2E/DX2                !
 ! D108  D(8,18,20,43)         -62.9459         estimate D2E/DX2                !
 ! D109  D(19,18,20,41)        -57.5904         estimate D2E/DX2                !
 ! D110  D(19,18,20,42)       -177.5991         estimate D2E/DX2                !
 ! D111  D(19,18,20,43)         62.0001         estimate D2E/DX2                !
 ! D112  D(37,18,20,41)         59.5524         estimate D2E/DX2                !
 ! D113  D(37,18,20,42)        -60.4563         estimate D2E/DX2                !
 ! D114  D(37,18,20,43)        179.143          estimate D2E/DX2                !
 ! D115  D(12,21,22,45)         62.94           estimate D2E/DX2                !
 ! D116  D(12,21,22,46)       -177.4695         estimate D2E/DX2                !
 ! D117  D(12,21,22,47)        -57.4607         estimate D2E/DX2                !
 ! D118  D(23,21,22,45)        -62.0072         estimate D2E/DX2                !
 ! D119  D(23,21,22,46)         57.5833         estimate D2E/DX2                !
 ! D120  D(23,21,22,47)        177.5921         estimate D2E/DX2                !
 ! D121  D(44,21,22,45)       -179.1488         estimate D2E/DX2                !
 ! D122  D(44,21,22,46)        -59.5582         estimate D2E/DX2                !
 ! D123  D(44,21,22,47)         60.4505         estimate D2E/DX2                !
 ! D124  D(12,21,23,48)        -63.8088         estimate D2E/DX2                !
 ! D125  D(12,21,23,49)        176.745          estimate D2E/DX2                !
 ! D126  D(12,21,23,50)         56.8725         estimate D2E/DX2                !
 ! D127  D(22,21,23,48)         60.7882         estimate D2E/DX2                !
 ! D128  D(22,21,23,49)        -58.658          estimate D2E/DX2                !
 ! D129  D(22,21,23,50)       -178.5305         estimate D2E/DX2                !
 ! D130  D(44,21,23,48)        178.1012         estimate D2E/DX2                !
 ! D131  D(44,21,23,49)         58.655          estimate D2E/DX2                !
 ! D132  D(44,21,23,50)        -61.2176         estimate D2E/DX2                !
 ! D133  D(13,24,25,52)        -56.8698         estimate D2E/DX2                !
 ! D134  D(13,24,25,53)         63.8119         estimate D2E/DX2                !
 ! D135  D(13,24,25,54)       -176.7412         estimate D2E/DX2                !
 ! D136  D(26,24,25,52)        178.5347         estimate D2E/DX2                !
 ! D137  D(26,24,25,53)        -60.7836         estimate D2E/DX2                !
 ! D138  D(26,24,25,54)         58.6632         estimate D2E/DX2                !
 ! D139  D(51,24,25,52)         61.2204         estimate D2E/DX2                !
 ! D140  D(51,24,25,53)       -178.0979         estimate D2E/DX2                !
 ! D141  D(51,24,25,54)        -58.6511         estimate D2E/DX2                !
 ! D142  D(13,24,26,55)         57.4571         estimate D2E/DX2                !
 ! D143  D(13,24,26,56)        -62.9422         estimate D2E/DX2                !
 ! D144  D(13,24,26,57)        177.4669         estimate D2E/DX2                !
 ! D145  D(25,24,26,55)       -177.5954         estimate D2E/DX2                !
 ! D146  D(25,24,26,56)         62.0053         estimate D2E/DX2                !
 ! D147  D(25,24,26,57)        -57.5856         estimate D2E/DX2                !
 ! D148  D(51,24,26,55)        -60.4539         estimate D2E/DX2                !
 ! D149  D(51,24,26,56)        179.1469         estimate D2E/DX2                !
 ! D150  D(51,24,26,57)         59.556          estimate D2E/DX2                !
 ! D151  D(17,27,28,59)        -57.4581         estimate D2E/DX2                !
 ! D152  D(17,27,28,60)         62.9413         estimate D2E/DX2                !
 ! D153  D(17,27,28,61)       -177.4679         estimate D2E/DX2                !
 ! D154  D(29,27,28,59)        177.5929         estimate D2E/DX2                !
 ! D155  D(29,27,28,60)        -62.0076         estimate D2E/DX2                !
 ! D156  D(29,27,28,61)         57.5831         estimate D2E/DX2                !
 ! D157  D(58,27,28,59)         60.452          estimate D2E/DX2                !
 ! D158  D(58,27,28,60)       -179.1486         estimate D2E/DX2                !
 ! D159  D(58,27,28,61)        -59.5578         estimate D2E/DX2                !
 ! D160  D(17,27,29,62)        -63.8119         estimate D2E/DX2                !
 ! D161  D(17,27,29,63)        176.7417         estimate D2E/DX2                !
 ! D162  D(17,27,29,64)         56.8702         estimate D2E/DX2                !
 ! D163  D(28,27,29,62)         60.7839         estimate D2E/DX2                !
 ! D164  D(28,27,29,63)        -58.6626         estimate D2E/DX2                !
 ! D165  D(28,27,29,64)       -178.534          estimate D2E/DX2                !
 ! D166  D(58,27,29,62)        178.0977         estimate D2E/DX2                !
 ! D167  D(58,27,29,63)         58.6512         estimate D2E/DX2                !
 ! D168  D(58,27,29,64)        -61.2202         estimate D2E/DX2                !
 --------------------------------------------------------------------------------
 Trust Radius=3.00D-01 FncErr=1.00D-07 GrdErr=1.00D-06
 Number of steps in this run=    366 maximum allowed number of steps=    390.
 GradGradGradGradGradGradGradGradGradGradGradGradGradGradGradGradGradGrad

 Leave Link  103 at Sat Nov 13 16:53:04 2021, MaxMem=  6710886400 cpu:         0.2
 (Enter /usr/local/gqt/g09/l202.exe)
 Stoichiometry    C27H36N2
 Framework group  C1[X(C27H36N2)]
 Deg. of freedom   189
 Full point group                 C1      NOp   1
 Largest Abelian subgroup         C1      NOp   1
 Largest concise Abelian subgroup C1      NOp   1
                         Standard orientation:                         
 ---------------------------------------------------------------------
 Center     Atomic      Atomic             Coordinates (Angstroms)
 Number     Number       Type             X           Y           Z
 ---------------------------------------------------------------------
      1          7           0       -1.053616   -0.000116    0.451728
      2          6           0       -0.670444   -0.000294    1.781914
      3          6           0        0.676189   -0.000140    1.784642
      4          7           0        1.064745    0.000063    0.456017
      5          6           0        0.007294    0.000090   -0.400200
      6          6           0        2.431941    0.000172    0.037094
      7          6           0       -2.419107   -0.000177    0.027280
      8          6           0       -3.067275    1.225008   -0.165118
      9          6           0       -4.400725    1.198297   -0.561597
     10          6           0       -5.063293   -0.000266   -0.758543
     11          6           0       -4.400447   -1.198787   -0.562235
     12          6           0       -3.066980   -1.225412   -0.165816
     13          6           0        3.080921   -1.224987   -0.152751
     14          6           0        4.415969   -1.198206   -0.543793
     15          6           0        5.079279    0.000392   -0.738046
     16          6           0        4.415596    1.198879   -0.544422
     17          6           0        3.080542    1.225437   -0.153359
     18          6           0       -2.374805    2.552113    0.053055
     19          6           0       -2.404869    3.418374   -1.204720
     20          6           0       -2.974971    3.295894    1.245878
     21          6           0       -2.374210   -2.552457    0.051666
     22          6           0       -2.973673   -3.296629    1.244603
     23          6           0       -2.404785   -3.418476   -1.206268
     24          6           0        2.387630   -2.552113    0.062594
     25          6           0        2.423632   -3.418820   -1.194711
     26          6           0        2.982404   -3.295417    1.258419
     27          6           0        2.386855    2.552453    0.061426
     28          6           0        2.981361    3.296387    1.256998
     29          6           0        2.422646    3.418701   -1.196205
     30          1           0       -1.375567   -0.000315    2.590865
     31          1           0       -4.927192    2.128419   -0.717248
     32          1           0       -6.098748   -0.000307   -1.066197
     33          1           0       -4.926719   -2.128941   -0.718357
     34          1           0        4.943111   -2.128300   -0.697313
     35          1           0        6.115970    0.000471   -1.041508
     36          1           0        4.942443    2.129060   -0.698421
     37          1           0       -1.331167    2.351153    0.282520
     38          1           0       -1.851138    4.341017   -1.037635
     39          1           0       -1.954802    2.901731   -2.050294
     40          1           0       -3.423465    3.689773   -1.479039
     41          1           0       -2.438684    4.227917    1.419326
     42          1           0       -2.917594    2.698602    2.154184
     43          1           0       -4.021972    3.540937    1.070551
     44          1           0       -1.330479   -2.351395    0.280642
     45          1           0       -4.020755   -3.541678    1.069757
     46          1           0       -2.437219   -4.228662    1.417466
     47          1           0       -2.915842   -2.699613    2.153060
     48          1           0       -3.423470   -3.690062   -1.480061
     49          1           0       -1.850762   -4.341023   -1.039635
     50          1           0       -1.955301   -2.901585   -2.051996
     51          1           0        1.342901   -2.351226    0.287139
     52          1           0        1.977535   -2.902497   -2.042579
     53          1           0        3.443493   -3.690343   -1.464152
     54          1           0        1.869124   -4.341395   -1.029859
     55          1           0        2.920713   -2.697879    2.166278
     56          1           0        4.030262   -3.540266    1.087988
     57          1           0        2.445517   -4.227502    1.429659
     58          1           0        1.342183    2.351350    0.286002
     59          1           0        2.919771    2.699186    2.165086
     60          1           0        4.029162    3.541451    1.086532
     61          1           0        2.444216    4.228396    1.427842
     62          1           0        3.442440    3.690422   -1.465707
     63          1           0        1.867866    4.341182   -1.031730
     64          1           0        1.976729    2.901939   -2.043901
     65          1           0        0.009481    0.000237   -1.480197
 ---------------------------------------------------------------------
 Rotational constants (GHZ):      0.2269804      0.1302252      0.0928794
 Leave Link  202 at Sat Nov 13 16:53:04 2021, MaxMem=  6710886400 cpu:         0.0
 (Enter /usr/local/gqt/g09/l301.exe)
 Standard basis: 6-311+G(d,p) (5D, 7F)
 Ernie: Thresh=  0.10000D-02 Tol=  0.10000D-05 Strict=F.
 There are   883 symmetry adapted cartesian basis functions of A   symmetry.
 There are   854 symmetry adapted basis functions of A   symmetry.
   854 basis functions,  1332 primitive gaussians,   883 cartesian basis functions
   106 alpha electrons      106 beta electrons
       nuclear repulsion energy      2874.0779130993 Hartrees.
 IExCor= 5547 DFT=T Ex+Corr=N12SX ExCW=0 ScaHFX=  0.250000
 ScaDFX=  1.000000  1.000000  1.000000  1.000000 ScalE2=  1.000000  1.000000
 IRadAn=      0 IRanWt=     -1 IRanGd=            0 ICorTp=0 IEmpDi=  4
  HFx wShort=  0.110000 wLong=  0.000000 cFull=  0.000000 cShort=  1.000000 cLong=  0.000000
  DFx wShort=  0.110000 wLong=  0.000000 cFull=  0.000000 cShort=  1.000000 cLong=  0.000000
 NAtoms=   65 NActive=   65 NUniq=   65 SFac= 1.00D+00 NAtFMM=   60 NAOKFM=T Big=T
 Integral buffers will be    131072 words long.
 Raffenetti 2 integral format.
 Two-electron integral symmetry is turned on.
 ------------------------------------------------------------------------------
 Polarizable Continuum Model (PCM)
 =================================
 Model                : PCM (using non-symmetric T matrix).
 Atomic radii         : UFF (Universal Force Field).
 Polarization charges : Total charges.
 Charge compensation  : None.
 Solution method      : On-the-fly selection.
 Cavity type          : Scaled VdW (van der Waals Surface) (Alpha=1.100).
 Cavity algorithm     : GePol (No added spheres)
                        Default sphere list used, NSphG=   65.
                        Lebedev-Laikov grids with approx.  5.0 points / Ang**2.
                        Smoothing algorithm: Karplus/York (Gamma=1.0000).
                        Polarization charges: spherical gaussians, with
                                              point-specific exponents (IZeta= 3).
                        Self-potential: point-specific (ISelfS= 7).
                        Self-field    : sphere-specific E.n sum rule (ISelfD= 2).
 1st derivatives      : Analytical E(r).r(x)/FMM algorithm (CHGder, D1EAlg=3).
                        Cavity 1st derivative terms included.
 Solvent              : Water, Eps=  78.355300 Eps(inf)=   1.777849
 ------------------------------------------------------------------------------
 GePol: Number of generator spheres                  =      65
 GePol: Total number of spheres                      =      65
 GePol: Number of exposed spheres                    =      63 ( 96.92%)
 GePol: Number of points                             =    4152
 GePol: Average weight of points                     =       0.13
 GePol: Minimum weight of points                     =   0.12D-11
 GePol: Maximum weight of points                     =    0.20577
 GePol: Number of points with low weight             =     313
 GePol: Fraction of low-weight points (<1% of avg)   =       7.54%
 GePol: Cavity surface area                          =    539.251 Ang**2
 GePol: Cavity volume                                =    614.038 Ang**3
 Leave Link  301 at Sat Nov 13 16:53:04 2021, MaxMem=  6710886400 cpu:         0.7
 (Enter /usr/local/gqt/g09/l302.exe)
 NPDir=0 NMtPBC=     1 NCelOv=     1 NCel=       1 NClECP=     1 NCelD=      1
         NCelK=      1 NCelE2=     1 NClLst=     1 CellRange=     0.0.
 One-electron integrals computed using PRISM.
 NBasis=   854 RedAO= T EigKep=  1.58D-06  NBF=   854
 NBsUse=   848 1.00D-06 EigRej=  5.07D-07 NBFU=   848
 Precomputing XC quadrature grid using
 IXCGrd= 4 IRadAn=           0 IRanWt=          -1 IRanGd=           0 AccXCQ= 0.00D+00.
 Generated NRdTot=       0 NPtTot=           0 NUsed=           0 NTot=          32
 NSgBfM=   878   880   880   880   880 MxSgAt=    65 MxSgA2=    65.
 Leave Link  302 at Sat Nov 13 16:53:07 2021, MaxMem=  6710886400 cpu:        36.5
 (Enter /usr/local/gqt/g09/l303.exe)
 DipDrv:  MaxL=1.
 Leave Link  303 at Sat Nov 13 16:53:07 2021, MaxMem=  6710886400 cpu:         2.4
 (Enter /usr/local/gqt/g09/l401.exe)
 ExpMin= 4.38D-02 ExpMax= 6.29D+03 ExpMxC= 9.49D+02 IAcc=2 IRadAn=         4 AccDes= 0.00D+00
 Harris functional with IExCor= 5547 and IRadAn=       4 diagonalized for initial guess.
 HarFok:  IExCor= 5547 AccDes= 0.00D+00 IRadAn=         4 IDoV= 1 UseB2=F ITyADJ=14
 ICtDFT=  3500011 ScaDFX=  1.000000  1.000000  1.000000  1.000000
 FoFCou: FMM=F IPFlag=           0 FMFlag=      100000 FMFlg1=        2001
         NFxFlg=           0 DoJE=T BraDBF=F KetDBF=T FulRan=T
         wScrn=  0.000000 ICntrl=     500 IOpCl=  0 I1Cent=   200000004 NGrid=           0
         NMat0=    1 NMatS0=      1 NMatT0=    0 NMatD0=    1 NMtDS0=    0 NMtDT0=    0
 Petite list used in FoFCou.
 Harris En= -1122.20315252540    
 JPrj=0 DoOrth=F DoCkMO=F.
 Leave Link  401 at Sat Nov 13 16:53:13 2021, MaxMem=  6710886400 cpu:        96.8
 (Enter /usr/local/gqt/g09/l502.exe)
 Closed shell SCF:
 Using DIIS extrapolation, IDIIS=  1040.
 Integral symmetry usage will be decided dynamically.
 IVT=     2378345 IEndB=     2378345 NGot=  6710886400 MDV=  6709305268
 LenX=  6709305268 LenY=  6708524696
 Requested convergence on RMS density matrix=1.00D-08 within 128 cycles.
 Requested convergence on MAX density matrix=1.00D-06.
 Requested convergence on             energy=1.00D-06.
 No special actions if energy rises.
 Fock matrices will be formed incrementally for  20 cycles.

 Cycle   1  Pass 1  IDiag  1:
 FoFJK:  IHMeth= 1 ICntrl=       0 DoSepK=T KAlg= 0 I1Cent=   0 FoldK=F
 IRaf=         1 NMat=   1 IRICut=       1 DoRegI=T DoRafI=F ISym2E= 0.
 FoFCou: FMM=T IPFlag=           0 FMFlag=      100000 FMFlg1=        2001
         NFxFlg=           0 DoJE=T BraDBF=F KetDBF=F FulRan=T
         wScrn=  0.000000 ICntrl=     500 IOpCl=  0 I1Cent=           0 NGrid=           0
         NMat0=    1 NMatS0=      1 NMatT0=    0 NMatD0=    1 NMtDS0=    0 NMtDT0=    0
 Symmetry not used in FoFCou.
 FMM levels:  10  Number of levels for PrismC:   9
 Inv3:  Mode=1 IEnd=    51717312.
 Iteration    1 A*A^-1 deviation from unit magnitude is 5.11D-15 for   4125.
 Iteration    1 A*A^-1 deviation from orthogonality  is 4.17D-15 for   2769    580.
 Iteration    1 A^-1*A deviation from unit magnitude is 5.00D-15 for   4133.
 Iteration    1 A^-1*A deviation from orthogonality  is 4.21D-12 for   3523   3516.
 E= -1159.28796820769    
 DIIS: error= 6.25D-02 at cycle   1 NSaved=   1.
 NSaved= 1 IEnMin= 1 EnMin= -1159.28796820769     IErMin= 1 ErrMin= 6.25D-02
 ErrMax= 6.25D-02  0.00D+00 EMaxC= 1.00D-01 BMatC= 2.85D+00 BMatP= 2.85D+00
 IDIUse=3 WtCom= 3.75D-01 WtEn= 6.25D-01
 Coeff-Com:  0.100D+01
 Coeff-En:   0.100D+01
 Coeff:      0.100D+01
 Gap=     0.156 Goal=   None    Shift=    0.000
 GapD=    0.156 DampG=1.000 DampE=0.500 DampFc=0.5000 IDamp=-1.
 Damping current iteration by 5.00D-01
 RMSDP=1.70D-02 MaxDP=3.56D+00              OVMax= 3.43D-01

 Cycle   2  Pass 1  IDiag  1:
 RMSU=  5.06D-03    CP:  8.41D-01
 E= -1159.44181516047     Delta-E=       -0.153846952782 Rises=F Damp=T
 DIIS: error= 2.87D-02 at cycle   2 NSaved=   2.
 NSaved= 2 IEnMin= 2 EnMin= -1159.44181516047     IErMin= 2 ErrMin= 2.87D-02
 ErrMax= 2.87D-02  0.00D+00 EMaxC= 1.00D-01 BMatC= 6.24D-01 BMatP= 2.85D+00
 IDIUse=3 WtCom= 7.13D-01 WtEn= 2.87D-01
 Coeff-Com: -0.469D+00 0.147D+01
 Coeff-En:   0.211D+00 0.789D+00
 Coeff:     -0.274D+00 0.127D+01
 Gap=     0.248 Goal=   None    Shift=    0.000
 RMSDP=1.06D-02 MaxDP=1.57D+00 DE=-1.54D-01 OVMax= 3.26D-01

 Cycle   3  Pass 1  IDiag  1:
 RMSU=  9.39D-03    CP:  7.68D-01  2.53D-01
 E= -1159.25993828347     Delta-E=        0.181876876999 Rises=F Damp=F
 DIIS: error= 3.08D-02 at cycle   3 NSaved=   3.
 NSaved= 3 IEnMin= 2 EnMin= -1159.44181516047     IErMin= 2 ErrMin= 2.87D-02
 ErrMax= 3.08D-02  0.00D+00 EMaxC= 1.00D-01 BMatC= 4.91D-01 BMatP= 6.24D-01
 IDIUse=3 WtCom= 6.92D-01 WtEn= 3.08D-01
 Coeff-Com: -0.401D+00 0.898D+00 0.503D+00
 Coeff-En:   0.000D+00 0.672D+00 0.328D+00
 Coeff:     -0.278D+00 0.828D+00 0.449D+00
 Gap=     0.238 Goal=   None    Shift=    0.000
 RMSDP=9.73D-03 MaxDP=1.09D+00 DE= 1.82D-01 OVMax= 1.93D-01

 Cycle   4  Pass 1  IDiag  1:
 RMSU=  2.91D-03    CP:  6.75D-01  9.79D-01  1.98D-01
 E= -1159.73683285779     Delta-E=       -0.476894574318 Rises=F Damp=F
 DIIS: error= 4.96D-03 at cycle   4 NSaved=   4.
 NSaved= 4 IEnMin= 4 EnMin= -1159.73683285779     IErMin= 4 ErrMin= 4.96D-03
 ErrMax= 4.96D-03  0.00D+00 EMaxC= 1.00D-01 BMatC= 1.10D-02 BMatP= 4.91D-01
 IDIUse=3 WtCom= 9.50D-01 WtEn= 4.96D-02
 Coeff-Com: -0.136D+00 0.311D+00 0.227D+00 0.598D+00
 Coeff-En:   0.000D+00 0.000D+00 0.000D+00 0.100D+01
 Coeff:     -0.129D+00 0.296D+00 0.216D+00 0.618D+00
 Gap=     0.162 Goal=   None    Shift=    0.000
 RMSDP=1.30D-03 MaxDP=1.84D-01 DE=-4.77D-01 OVMax= 3.61D-02

 Cycle   5  Pass 1  IDiag  1:
 RMSU=  7.91D-04    CP:  6.65D-01  8.45D-01  2.68D-01  9.56D-01
 E= -1159.74696574535     Delta-E=       -0.010132887562 Rises=F Damp=F
 DIIS: error= 2.36D-03 at cycle   5 NSaved=   5.
 NSaved= 5 IEnMin= 5 EnMin= -1159.74696574535     IErMin= 5 ErrMin= 2.36D-03
 ErrMax= 2.36D-03  0.00D+00 EMaxC= 1.00D-01 BMatC= 1.57D-03 BMatP= 1.10D-02
 IDIUse=3 WtCom= 9.76D-01 WtEn= 2.36D-02
 Coeff-Com: -0.206D-02 0.788D-02 0.169D-01 0.302D+00 0.675D+00
 Coeff-En:   0.000D+00 0.000D+00 0.000D+00 0.134D+00 0.866D+00
 Coeff:     -0.201D-02 0.769D-02 0.165D-01 0.298D+00 0.680D+00
 Gap=     0.160 Goal=   None    Shift=    0.000
 RMSDP=3.54D-04 MaxDP=3.43D-02 DE=-1.01D-02 OVMax= 1.59D-02

 Cycle   6  Pass 1  IDiag  1:
 RMSU=  2.19D-04    CP:  6.63D-01  8.72D-01  2.56D-01  9.73D-01  7.54D-01
 E= -1159.74847458479     Delta-E=       -0.001508839435 Rises=F Damp=F
 DIIS: error= 7.59D-04 at cycle   6 NSaved=   6.
 NSaved= 6 IEnMin= 6 EnMin= -1159.74847458479     IErMin= 6 ErrMin= 7.59D-04
 ErrMax= 7.59D-04  0.00D+00 EMaxC= 1.00D-01 BMatC= 2.36D-04 BMatP= 1.57D-03
 IDIUse=3 WtCom= 9.92D-01 WtEn= 7.59D-03
 Coeff-Com:  0.934D-02-0.195D-01-0.769D-02 0.138D+00 0.414D+00 0.465D+00
 Coeff-En:   0.000D+00 0.000D+00 0.000D+00 0.000D+00 0.472D-01 0.953D+00
 Coeff:      0.927D-02-0.194D-01-0.763D-02 0.137D+00 0.411D+00 0.469D+00
 Gap=     0.159 Goal=   None    Shift=    0.000
 RMSDP=1.88D-04 MaxDP=2.51D-02 DE=-1.51D-03 OVMax= 5.11D-03

 Cycle   7  Pass 1  IDiag  1:
 RMSU=  7.94D-05    CP:  6.62D-01  8.66D-01  2.43D-01  1.00D+00  7.90D-01
                    CP:  6.96D-01
 E= -1159.74870625076     Delta-E=       -0.000231665969 Rises=F Damp=F
 DIIS: error= 1.19D-04 at cycle   7 NSaved=   7.
 NSaved= 7 IEnMin= 7 EnMin= -1159.74870625076     IErMin= 7 ErrMin= 1.19D-04
 ErrMax= 1.19D-04  0.00D+00 EMaxC= 1.00D-01 BMatC= 6.51D-06 BMatP= 2.36D-04
 IDIUse=3 WtCom= 9.99D-01 WtEn= 1.19D-03
 Coeff-Com:  0.337D-02-0.709D-02-0.326D-02 0.430D-01 0.136D+00 0.209D+00
 Coeff-Com:  0.619D+00
 Coeff-En:   0.000D+00 0.000D+00 0.000D+00 0.000D+00 0.000D+00 0.000D+00
 Coeff-En:   0.100D+01
 Coeff:      0.337D-02-0.708D-02-0.326D-02 0.430D-01 0.135D+00 0.209D+00
 Coeff:      0.620D+00
 Gap=     0.159 Goal=   None    Shift=    0.000
 RMSDP=3.11D-05 MaxDP=6.13D-03 DE=-2.32D-04 OVMax= 1.70D-03

 Cycle   8  Pass 1  IDiag  1:
 RMSU=  2.92D-05    CP:  6.62D-01  8.67D-01  2.43D-01  1.00D+00  7.90D-01
                    CP:  6.75D-01  9.54D-01
 E= -1159.74871132682     Delta-E=       -0.000005076064 Rises=F Damp=F
 DIIS: error= 7.15D-05 at cycle   8 NSaved=   8.
 NSaved= 8 IEnMin= 8 EnMin= -1159.74871132682     IErMin= 8 ErrMin= 7.15D-05
 ErrMax= 7.15D-05  0.00D+00 EMaxC= 1.00D-01 BMatC= 2.43D-06 BMatP= 6.51D-06
 IDIUse=1 WtCom= 1.00D+00 WtEn= 0.00D+00
 Coeff-Com:  0.153D-02-0.324D-02-0.177D-02 0.124D-01 0.431D-01 0.870D-01
 Coeff-Com:  0.418D+00 0.443D+00
 Coeff:      0.153D-02-0.324D-02-0.177D-02 0.124D-01 0.431D-01 0.870D-01
 Coeff:      0.418D+00 0.443D+00
 Gap=     0.159 Goal=   None    Shift=    0.000
 RMSDP=2.96D-05 MaxDP=4.09D-03 DE=-5.08D-06 OVMax= 4.88D-04

 Cycle   9  Pass 1  IDiag  1:
 RMSU=  9.82D-06    CP:  6.62D-01  8.67D-01  2.41D-01  1.01D+00  7.93D-01
                    CP:  6.80D-01  1.05D+00  8.19D-01
 E= -1159.74871341968     Delta-E=       -0.000002092862 Rises=F Damp=F
 DIIS: error= 1.97D-05 at cycle   9 NSaved=   9.
 NSaved= 9 IEnMin= 9 EnMin= -1159.74871341968     IErMin= 9 ErrMin= 1.97D-05
 ErrMax= 1.97D-05  0.00D+00 EMaxC= 1.00D-01 BMatC= 1.71D-07 BMatP= 2.43D-06
 IDIUse=1 WtCom= 1.00D+00 WtEn= 0.00D+00
 Coeff-Com:  0.215D-03-0.449D-03-0.351D-03-0.105D-02-0.134D-02 0.934D-02
 Coeff-Com:  0.131D+00 0.234D+00 0.629D+00
 Coeff:      0.215D-03-0.449D-03-0.351D-03-0.105D-02-0.134D-02 0.934D-02
 Coeff:      0.131D+00 0.234D+00 0.629D+00
 Gap=     0.159 Goal=   None    Shift=    0.000
 RMSDP=6.73D-06 MaxDP=1.38D-03 DE=-2.09D-06 OVMax= 1.65D-04

 Cycle  10  Pass 1  IDiag  1:
 RMSU=  4.80D-06    CP:  6.62D-01  8.68D-01  2.41D-01  1.01D+00  7.92D-01
                    CP:  6.93D-01  1.06D+00  8.47D-01  8.05D-01
 E= -1159.74871355419     Delta-E=       -0.000000134509 Rises=F Damp=F
 DIIS: error= 7.72D-06 at cycle  10 NSaved=  10.
 NSaved=10 IEnMin=10 EnMin= -1159.74871355419     IErMin=10 ErrMin= 7.72D-06
 ErrMax= 7.72D-06  0.00D+00 EMaxC= 1.00D-01 BMatC= 4.38D-08 BMatP= 1.71D-07
 IDIUse=1 WtCom= 1.00D+00 WtEn= 0.00D+00
 Coeff-Com: -0.616D-04 0.130D-03 0.176D-04-0.187D-02-0.543D-02-0.390D-02
 Coeff-Com:  0.346D-01 0.743D-01 0.384D+00 0.519D+00
 Coeff:     -0.616D-04 0.130D-03 0.176D-04-0.187D-02-0.543D-02-0.390D-02
 Coeff:      0.346D-01 0.743D-01 0.384D+00 0.519D+00
 Gap=     0.159 Goal=   None    Shift=    0.000
 RMSDP=2.74D-06 MaxDP=2.58D-04 DE=-1.35D-07 OVMax= 8.74D-05

 Cycle  11  Pass 1  IDiag  1:
 RMSU=  1.71D-06    CP:  6.62D-01  8.68D-01  2.41D-01  1.01D+00  7.93D-01
                    CP:  6.92D-01  1.07D+00  8.41D-01  9.24D-01  7.64D-01
 E= -1159.74871359586     Delta-E=       -0.000000041664 Rises=F Damp=F
 DIIS: error= 3.42D-06 at cycle  11 NSaved=  11.
 NSaved=11 IEnMin=11 EnMin= -1159.74871359586     IErMin=11 ErrMin= 3.42D-06
 ErrMax= 3.42D-06  0.00D+00 EMaxC= 1.00D-01 BMatC= 4.82D-09 BMatP= 4.38D-08
 IDIUse=1 WtCom= 1.00D+00 WtEn= 0.00D+00
 Coeff-Com: -0.557D-04 0.114D-03 0.387D-04-0.112D-02-0.343D-02-0.420D-02
 Coeff-Com:  0.895D-03 0.354D-02 0.145D+00 0.315D+00 0.545D+00
 Coeff:     -0.557D-04 0.114D-03 0.387D-04-0.112D-02-0.343D-02-0.420D-02
 Coeff:      0.895D-03 0.354D-02 0.145D+00 0.315D+00 0.545D+00
 Gap=     0.159 Goal=   None    Shift=    0.000
 RMSDP=1.54D-06 MaxDP=1.59D-04 DE=-4.17D-08 OVMax= 2.23D-05

 Cycle  12  Pass 1  IDiag  1:
 RMSU=  3.39D-07    CP:  6.62D-01  8.68D-01  2.41D-01  1.01D+00  7.92D-01
                    CP:  6.92D-01  1.07D+00  8.50D-01  9.19D-01  8.31D-01
                    CP:  7.91D-01
 E= -1159.74871360006     Delta-E=       -0.000000004205 Rises=F Damp=F
 DIIS: error= 6.49D-07 at cycle  12 NSaved=  12.
 NSaved=12 IEnMin=12 EnMin= -1159.74871360006     IErMin=12 ErrMin= 6.49D-07
 ErrMax= 6.49D-07  0.00D+00 EMaxC= 1.00D-01 BMatC= 2.48D-10 BMatP= 4.82D-09
 IDIUse=1 WtCom= 1.00D+00 WtEn= 0.00D+00
 Coeff-Com: -0.158D-04 0.320D-04 0.154D-04-0.203D-03-0.660D-03-0.106D-02
 Coeff-Com: -0.241D-02-0.916D-02 0.176D-01 0.857D-01 0.240D+00 0.670D+00
 Coeff:     -0.158D-04 0.320D-04 0.154D-04-0.203D-03-0.660D-03-0.106D-02
 Coeff:     -0.241D-02-0.916D-02 0.176D-01 0.857D-01 0.240D+00 0.670D+00
 Gap=     0.159 Goal=   None    Shift=    0.000
 RMSDP=2.36D-07 MaxDP=6.91D-05 DE=-4.20D-09 OVMax= 5.07D-06

 Cycle  13  Pass 1  IDiag  1:
 RMSU=  1.01D-07    CP:  6.62D-01  8.68D-01  2.41D-01  1.01D+00  7.92D-01
                    CP:  6.92D-01  1.07D+00  8.47D-01  9.18D-01  8.34D-01
                    CP:  7.43D-01  8.90D-01
 E= -1159.74871360008     Delta-E=       -0.000000000024 Rises=F Damp=F
 DIIS: error= 1.40D-07 at cycle  13 NSaved=  13.
 NSaved=13 IEnMin=13 EnMin= -1159.74871360008     IErMin=13 ErrMin= 1.40D-07
 ErrMax= 1.40D-07  0.00D+00 EMaxC= 1.00D-01 BMatC= 1.48D-11 BMatP= 2.48D-10
 IDIUse=1 WtCom= 1.00D+00 WtEn= 0.00D+00
 Coeff-Com: -0.385D-05 0.783D-05 0.421D-05-0.312D-04-0.109D-03-0.245D-03
 Coeff-Com: -0.120D-02-0.435D-02-0.796D-03 0.184D-01 0.711D-01 0.285D+00
 Coeff-Com:  0.632D+00
 Coeff:     -0.385D-05 0.783D-05 0.421D-05-0.312D-04-0.109D-03-0.245D-03
 Coeff:     -0.120D-02-0.435D-02-0.796D-03 0.184D-01 0.711D-01 0.285D+00
 Coeff:      0.632D+00
 Gap=     0.159 Goal=   None    Shift=    0.000
 RMSDP=5.87D-08 MaxDP=8.28D-06 DE=-2.36D-11 OVMax= 1.30D-06

 Cycle  14  Pass 1  IDiag  1:
 RMSU=  2.91D-08    CP:  6.62D-01  8.68D-01  2.41D-01  1.01D+00  7.92D-01
                    CP:  6.92D-01  1.07D+00  8.47D-01  9.18D-01  8.36D-01
                    CP:  7.45D-01  9.32D-01  9.79D-01
 E= -1159.74871360021     Delta-E=       -0.000000000130 Rises=F Damp=F
 DIIS: error= 5.27D-08 at cycle  14 NSaved=  14.
 NSaved=14 IEnMin=14 EnMin= -1159.74871360021     IErMin=14 ErrMin= 5.27D-08
 ErrMax= 5.27D-08  0.00D+00 EMaxC= 1.00D-01 BMatC= 2.19D-12 BMatP= 1.48D-11
 IDIUse=1 WtCom= 1.00D+00 WtEn= 0.00D+00
 Coeff-Com: -0.928D-06 0.191D-05 0.106D-05 0.308D-07-0.335D-05-0.259D-04
 Coeff-Com: -0.268D-03-0.102D-02-0.119D-02 0.158D-02 0.135D-01 0.760D-01
 Coeff-Com:  0.321D+00 0.591D+00
 Coeff:     -0.928D-06 0.191D-05 0.106D-05 0.308D-07-0.335D-05-0.259D-04
 Coeff:     -0.268D-03-0.102D-02-0.119D-02 0.158D-02 0.135D-01 0.760D-01
 Coeff:      0.321D+00 0.591D+00
 Gap=     0.159 Goal=   None    Shift=    0.000
 RMSDP=2.98D-08 MaxDP=4.08D-06 DE=-1.30D-10 OVMax= 4.97D-07

 Cycle  15  Pass 1  IDiag  1:
 RMSU=  1.96D-08    CP:  6.62D-01  8.68D-01  2.41D-01  1.01D+00  7.92D-01
                    CP:  6.92D-01  1.07D+00  8.48D-01  9.18D-01  8.37D-01
                    CP:  7.48D-01  9.39D-01  9.68D-01  9.84D-01
 E= -1159.74871360026     Delta-E=       -0.000000000045 Rises=F Damp=F
 DIIS: error= 1.22D-08 at cycle  15 NSaved=  15.
 NSaved=15 IEnMin=15 EnMin= -1159.74871360026     IErMin=15 ErrMin= 1.22D-08
 ErrMax= 1.22D-08  0.00D+00 EMaxC= 1.00D-01 BMatC= 1.14D-13 BMatP= 2.19D-12
 IDIUse=1 WtCom= 1.00D+00 WtEn= 0.00D+00
 Coeff-Com: -0.187D-06 0.394D-06 0.196D-06 0.162D-05 0.443D-05 0.337D-05
 Coeff-Com: -0.453D-04-0.147D-03-0.480D-03-0.711D-03 0.947D-03 0.128D-01
 Coeff-Com:  0.957D-01 0.254D+00 0.638D+00
 Coeff:     -0.187D-06 0.394D-06 0.196D-06 0.162D-05 0.443D-05 0.337D-05
 Coeff:     -0.453D-04-0.147D-03-0.480D-03-0.711D-03 0.947D-03 0.128D-01
 Coeff:      0.957D-01 0.254D+00 0.638D+00
 Gap=     0.159 Goal=   None    Shift=    0.000
 RMSDP=2.01D-08 MaxDP=1.49D-06 DE=-4.50D-11 OVMax= 1.26D-07

 Cycle  16  Pass 1  IDiag  1:
 RMSU=  1.74D-08    CP:  6.62D-01  8.68D-01  2.41D-01  1.01D+00  7.92D-01
                    CP:  6.92D-01  1.07D+00  8.48D-01  9.18D-01  8.37D-01
                    CP:  7.50D-01  9.39D-01  9.90D-01  9.86D-01  1.38D+00
 E= -1159.74871360034     Delta-E=       -0.000000000083 Rises=F Damp=F
 DIIS: error= 6.61D-09 at cycle  16 NSaved=  16.
 NSaved=16 IEnMin=16 EnMin= -1159.74871360034     IErMin=16 ErrMin= 6.61D-09
 ErrMax= 6.61D-09  0.00D+00 EMaxC= 1.00D-01 BMatC= 2.22D-14 BMatP= 1.14D-13
 IDIUse=1 WtCom= 1.00D+00 WtEn= 0.00D+00
 Coeff-Com: -0.552D-08 0.192D-07 0.319D-08 0.893D-06 0.288D-05 0.471D-05
 Coeff-Com:  0.399D-05 0.163D-04-0.129D-03-0.491D-03-0.704D-03 0.320D-04
 Coeff-Com:  0.209D-01 0.748D-01 0.346D+00 0.559D+00
 Coeff:     -0.552D-08 0.192D-07 0.319D-08 0.893D-06 0.288D-05 0.471D-05
 Coeff:      0.399D-05 0.163D-04-0.129D-03-0.491D-03-0.704D-03 0.320D-04
 Coeff:      0.209D-01 0.748D-01 0.346D+00 0.559D+00
 Gap=     0.159 Goal=   None    Shift=    0.000
 RMSDP=2.15D-08 MaxDP=1.96D-06 DE=-8.32D-11 OVMax= 4.04D-08

 Cycle  17  Pass 1  IDiag  1:
 RMSU=  1.43D-08    CP:  6.62D-01  8.68D-01  2.41D-01  1.01D+00  7.92D-01
                    CP:  6.92D-01  1.07D+00  8.48D-01  9.18D-01  8.36D-01
                    CP:  7.52D-01  9.35D-01  9.87D-01  9.89D-01  1.74D+00
                    CP:  1.58D+00
 E= -1159.74871360014     Delta-E=        0.000000000204 Rises=F Damp=F
 DIIS: error= 3.00D-09 at cycle  17 NSaved=  17.
 NSaved=17 IEnMin=16 EnMin= -1159.74871360034     IErMin=17 ErrMin= 3.00D-09
 ErrMax= 3.00D-09  0.00D+00 EMaxC= 1.00D-01 BMatC= 4.15D-15 BMatP= 2.22D-14
 IDIUse=1 WtCom= 1.00D+00 WtEn= 0.00D+00
 Large coefficients: NSaved= 17 BigCof=    0.00 CofMax=   10.00 Det=-5.40D-15
 Inversion failed.  Reducing to 16 matrices.
 Large coefficients: NSaved= 16 BigCof=    0.00 CofMax=   10.00 Det=-5.40D-15
 Inversion failed.  Reducing to 15 matrices.
 Coeff-Com:  0.398D-08 0.416D-06 0.140D-05 0.252D-05 0.383D-05 0.145D-04
 Coeff-Com: -0.555D-04-0.255D-03-0.451D-03-0.417D-03 0.901D-02 0.345D-01
 Coeff-Com:  0.185D+00 0.325D+00 0.447D+00
 Coeff:      0.398D-08 0.416D-06 0.140D-05 0.252D-05 0.383D-05 0.145D-04
 Coeff:     -0.555D-04-0.255D-03-0.451D-03-0.417D-03 0.901D-02 0.345D-01
 Coeff:      0.185D+00 0.325D+00 0.447D+00
 Gap=     0.159 Goal=   None    Shift=    0.000
 RMSDP=1.96D-08 MaxDP=1.72D-06 DE= 2.04D-10 OVMax= 9.20D-09

 Cycle  18  Pass 1  IDiag  1:
 RMSU=  8.68D-09    CP:  6.62D-01  8.68D-01  2.41D-01  1.01D+00  7.92D-01
                    CP:  6.92D-01  1.07D+00  8.48D-01  9.18D-01  8.36D-01
                    CP:  7.54D-01  9.30D-01  9.83D-01  9.82D-01  1.98D+00
                    CP:  1.97D+00  1.84D+00
 E= -1159.74871360004     Delta-E=        0.000000000095 Rises=F Damp=F
 DIIS: error= 3.75D-09 at cycle  18 NSaved=  16.
 NSaved=16 IEnMin=14 EnMin= -1159.74871360034     IErMin=15 ErrMin= 3.00D-09
 ErrMax= 3.75D-09  0.00D+00 EMaxC= 1.00D-01 BMatC= 4.20D-15 BMatP= 4.15D-15
 IDIUse=1 WtCom= 1.00D+00 WtEn= 0.00D+00
 Large coefficients: NSaved= 16 BigCof=    0.00 CofMax=   10.00 Det=-1.49D-15
 Inversion failed.  Reducing to 15 matrices.
 Coeff-Com:  0.416D-06 0.140D-05 0.242D-05 0.276D-05 0.112D-04-0.582D-04
 Coeff-Com: -0.244D-03-0.406D-03-0.267D-03 0.919D-02 0.344D-01 0.182D+00
 Coeff-Com:  0.319D+00 0.433D+00 0.231D-01
 Coeff:      0.416D-06 0.140D-05 0.242D-05 0.276D-05 0.112D-04-0.582D-04
 Coeff:     -0.244D-03-0.406D-03-0.267D-03 0.919D-02 0.344D-01 0.182D+00
 Coeff:      0.319D+00 0.433D+00 0.231D-01
 Gap=     0.159 Goal=   None    Shift=    0.000
 RMSDP=9.93D-10 MaxDP=7.67D-08 DE= 9.55D-11 OVMax= 4.28D-10

 Error on total polarization charges =  0.02383
 SCF Done:  E(RN12SX) =  -1159.74871360     A.U. after   18 cycles
            NFock= 18  Conv=0.99D-09     -V/T= 2.0064
 KE= 1.152398781751D+03 PE=-8.436514108047D+03 EE= 3.250288699597D+03
 Leave Link  502 at Sat Nov 13 17:12:26 2021, MaxMem=  6710886400 cpu:     18221.3
 (Enter /usr/local/gqt/g09/l601.exe)
 Copying SCF densities to generalized density rwf, IOpCl= 0 IROHF=0.

 **********************************************************************

            Population analysis using the SCF density.

 **********************************************************************

 Orbital symmetries:
       Occupied  (A) (A) (A) (A) (A) (A) (A) (A) (A) (A) (A) (A)
                 (A) (A) (A) (A) (A) (A) (A) (A) (A) (A) (A) (A)
                 (A) (A) (A) (A) (A) (A) (A) (A) (A) (A) (A) (A)
                 (A) (A) (A) (A) (A) (A) (A) (A) (A) (A) (A) (A)
                 (A) (A) (A) (A) (A) (A) (A) (A) (A) (A) (A) (A)
                 (A) (A) (A) (A) (A) (A) (A) (A) (A) (A) (A) (A)
                 (A) (A) (A) (A) (A) (A) (A) (A) (A) (A) (A) (A)
                 (A) (A) (A) (A) (A) (A) (A) (A) (A) (A) (A) (A)
                 (A) (A) (A) (A) (A) (A) (A) (A) (A) (A)
       Virtual   (A) (A) (A) (A) (A) (A) (A) (A) (A) (A) (A) (A)
                 (A) (A) (A) (A) (A) (A) (A) (A) (A) (A) (A) (A)
                 (A) (A) (A) (A) (A) (A) (A) (A) (A) (A) (A) (A)
                 (A) (A) (A) (A) (A) (A) (A) (A) (A) (A) (A) (A)
                 (A) (A) (A) (A) (A) (A) (A) (A) (A) (A) (A) (A)
                 (A) (A) (A) (A) (A) (A) (A) (A) (A) (A) (A) (A)
                 (A) (A) (A) (A) (A) (A) (A) (A) (A) (A) (A) (A)
                 (A) (A) (A) (A) (A) (A) (A) (A) (A) (A) (A) (A)
                 (A) (A) (A) (A) (A) (A) (A) (A) (A) (A) (A) (A)
                 (A) (A) (A) (A) (A) (A) (A) (A) (A) (A) (A) (A)
                 (A) (A) (A) (A) (A) (A) (A) (A) (A) (A) (A) (A)
                 (A) (A) (A) (A) (A) (A) (A) (A) (A) (A) (A) (A)
                 (A) (A) (A) (A) (A) (A) (A) (A) (A) (A) (A) (A)
                 (A) (A) (A) (A) (A) (A) (A) (A) (A) (A) (A) (A)
                 (A) (A) (A) (A) (A) (A) (A) (A) (A) (A) (A) (A)
                 (A) (A) (A) (A) (A) (A) (A) (A) (A) (A) (A) (A)
                 (A) (A) (A) (A) (A) (A) (A) (A) (A) (A) (A) (A)
                 (A) (A) (A) (A) (A) (A) (A) (A) (A) (A) (A) (A)
                 (A) (A) (A) (A) (A) (A) (A) (A) (A) (A) (A) (A)
                 (A) (A) (A) (A) (A) (A) (A) (A) (A) (A) (A) (A)
                 (A) (A) (A) (A) (A) (A) (A) (A) (A) (A) (A) (A)
                 (A) (A) (A) (A) (A) (A) (A) (A) (A) (A) (A) (A)
                 (A) (A) (A) (A) (A) (A) (A) (A) (A) (A) (A) (A)
                 (A) (A) (A) (A) (A) (A) (A) (A) (A) (A) (A) (A)
                 (A) (A) (A) (A) (A) (A) (A) (A) (A) (A) (A) (A)
                 (A) (A) (A) (A) (A) (A) (A) (A) (A) (A) (A) (A)
                 (A) (A) (A) (A) (A) (A) (A) (A) (A) (A) (A) (A)
                 (A) (A) (A) (A) (A) (A) (A) (A) (A) (A) (A) (A)
                 (A) (A) (A) (A) (A) (A) (A) (A) (A) (A) (A) (A)
                 (A) (A) (A) (A) (A) (A) (A) (A) (A) (A) (A) (A)
                 (A) (A) (A) (A) (A) (A) (A) (A) (A) (A) (A) (A)
                 (A) (A) (A) (A) (A) (A) (A) (A) (A) (A) (A) (A)
                 (A) (A) (A) (A) (A) (A) (A) (A) (A) (A) (A) (A)
                 (A) (A) (A) (A) (A) (A) (A) (A) (A) (A) (A) (A)
                 (A) (A) (A) (A) (A) (A) (A) (A) (A) (A) (A) (A)
                 (A) (A) (A) (A) (A) (A) (A) (A) (A) (A) (A) (A)
                 (A) (A) (A) (A) (A) (A) (A) (A) (A) (A) (A) (A)
                 (A) (A) (A) (A) (A) (A) (A) (A) (A) (A) (A) (A)
                 (A) (A) (A) (A) (A) (A) (A) (A) (A) (A) (A) (A)
                 (A) (A) (A) (A) (A) (A) (A) (A) (A) (A) (A) (A)
                 (A) (A) (A) (A) (A) (A) (A) (A) (A) (A) (A) (A)
                 (A) (A) (A) (A) (A) (A) (A) (A) (A) (A) (A) (A)
                 (A) (A) (A) (A) (A) (A) (A) (A) (A) (A) (A) (A)
                 (A) (A) (A) (A) (A) (A) (A) (A) (A) (A) (A) (A)
                 (A) (A) (A) (A) (A) (A) (A) (A) (A) (A) (A) (A)
                 (A) (A) (A) (A) (A) (A) (A) (A) (A) (A) (A) (A)
                 (A) (A) (A) (A) (A) (A) (A) (A) (A) (A) (A) (A)
                 (A) (A) (A) (A) (A) (A) (A) (A) (A) (A) (A) (A)
                 (A) (A) (A) (A) (A) (A) (A) (A) (A) (A) (A) (A)
                 (A) (A) (A) (A) (A) (A) (A) (A) (A) (A) (A) (A)
                 (A) (A) (A) (A) (A) (A) (A) (A) (A) (A) (A) (A)
                 (A) (A) (A) (A) (A) (A) (A) (A) (A) (A) (A) (A)
                 (A) (A) (A) (A) (A) (A) (A) (A) (A) (A) (A) (A)
                 (A) (A) (A) (A) (A) (A) (A) (A) (A) (A) (A) (A)
                 (A) (A) (A) (A) (A) (A) (A) (A) (A) (A) (A) (A)
                 (A) (A) (A) (A) (A) (A) (A) (A) (A) (A) (A) (A)
                 (A) (A) (A) (A) (A) (A) (A) (A) (A) (A) (A) (A)
                 (A) (A) (A) (A) (A) (A) (A) (A) (A) (A) (A) (A)
                 (A) (A) (A) (A) (A) (A) (A) (A) (A) (A) (A) (A)
                 (A) (A) (A) (A) (A) (A) (A) (A) (A) (A) (A) (A)
                 (A) (A) (A) (A) (A) (A) (A) (A) (A) (A) (A) (A)
                 (A) (A) (A) (A) (A) (A) (A) (A) (A) (A)
 The electronic state is 1-A.
 Alpha  occ. eigenvalues --  -14.44331 -14.43153 -10.31089 -10.27420 -10.26973
 Alpha  occ. eigenvalues --  -10.24362 -10.24361 -10.23995 -10.23994 -10.23810
 Alpha  occ. eigenvalues --  -10.23243 -10.23243 -10.23027 -10.22976 -10.22976
 Alpha  occ. eigenvalues --  -10.22766 -10.22644 -10.22638 -10.22391 -10.22385
 Alpha  occ. eigenvalues --  -10.20631 -10.20631 -10.20611 -10.20610 -10.20487
 Alpha  occ. eigenvalues --  -10.20487 -10.20437 -10.20437 -10.19563  -1.05249
 Alpha  occ. eigenvalues --   -0.94835  -0.88361  -0.86401  -0.82734  -0.82460
 Alpha  occ. eigenvalues --   -0.79869  -0.79555  -0.78065  -0.75523  -0.73427
 Alpha  occ. eigenvalues --   -0.73361  -0.73116  -0.68631  -0.68623  -0.68470
 Alpha  occ. eigenvalues --   -0.68460  -0.66563  -0.64192  -0.63841  -0.62094
 Alpha  occ. eigenvalues --   -0.60280  -0.59724  -0.58724  -0.57502  -0.55308
 Alpha  occ. eigenvalues --   -0.54491  -0.54209  -0.52000  -0.51265  -0.49895
 Alpha  occ. eigenvalues --   -0.48880  -0.46663  -0.46481  -0.44952  -0.44928
 Alpha  occ. eigenvalues --   -0.44326  -0.44239  -0.44025  -0.43787  -0.43409
 Alpha  occ. eigenvalues --   -0.42995  -0.42729  -0.42413  -0.41945  -0.41406
 Alpha  occ. eigenvalues --   -0.41042  -0.40837  -0.38594  -0.38557  -0.38412
 Alpha  occ. eigenvalues --   -0.38331  -0.38326  -0.38030  -0.37954  -0.37768
 Alpha  occ. eigenvalues --   -0.36188  -0.35893  -0.35062  -0.34824  -0.34269
 Alpha  occ. eigenvalues --   -0.34090  -0.33554  -0.33460  -0.33259  -0.32825
 Alpha  occ. eigenvalues --   -0.32535  -0.31990  -0.31778  -0.31765  -0.29169
 Alpha  occ. eigenvalues --   -0.26094  -0.25308  -0.24532  -0.24256  -0.23300
 Alpha  occ. eigenvalues --   -0.19718
 Alpha virt. eigenvalues --   -0.03820  -0.02848  -0.02842  -0.02237  -0.02194
 Alpha virt. eigenvalues --   -0.00945  -0.00208   0.00058   0.00435   0.00713
 Alpha virt. eigenvalues --    0.00977   0.01480   0.01763   0.01818   0.02370
[...]
 00483,-0.00000161,0.00000864,0.00000769,-0.00006223,-0.00001772,-0.000
 00073,-0.00000059,-0.00000510,0.00000644,0.00000263,0.00000228,-0.0000
 0089,-0.00000118,-0.00000416,-0.00000272,-0.00000026,0.00000231,0.0001
 0119,0.00002251,-0.00005539,-0.00002037,-0.00005040,0.00005144,-0.0000
 4182,-0.00003867,-0.00003237,0.00791211,-0.01499864,-0.00351443,-0.000
 35274,0.00060187,-0.00117468,0.11313374,-0.24268124,-0.04452730,-0.000
 01918,-0.00000534,-0.00000140,-0.00000537,0.00000078,-0.00000088,-0.00
 000094,0.00000055,-0.00000029,-0.00000326,-0.00000089,-0.00000143,0.00
 001835,-0.00002629,0.00002042,0.00005491,-0.00003550,-0.00003409,0.000
 09022,0.00007092,0.00005803,0.00000301,-0.00002058,0.00000526,-0.00002
 082,0.00007419,0.00000343,-0.00001659,-0.00000488,0.00000331,0.0000194
 2,0.00001819,-0.00000004,0.00000124,0.00000828,0.00000375,0.00000114,0
 .00000023,-0.00000231,0.00000024,0.00000092,0.00000158,-0.00000075,0.0
 0000911,-0.00000202,-0.00000192,-0.00000111,0.00000075,-0.00000006,-0.
 00000133,0.00000098,0.00000040,0.00000040,0.00000037,-0.00000132,-0.00
 000118,-0.00000153,0.00000084,-0.00000136,-0.00000094,0.00000080,0.000
 00031,0.00000143,-0.00001974,-0.00000690,0.00000484,-0.00000069,0.0000
 0843,-0.00000008,0.00000263,0.00001000,0.00000476,-0.00001819,-0.00003
 006,-0.00002105,0.00000143,0.00000649,0.00000376,0.00000082,0.00001051
 ,-0.00000197,0.00000102,-0.00002861,0.00002235,-0.00045643,0.00033894,
 -0.00035159,-0.00029813,0.00019320,0.00010925,0.00000576,0.00003629,0.
 00007367,0.00012516,0.00055464,0.00028862,-0.00412182,0.00731734,0.001
 57107,-0.12444368,0.26312883,0.00012888,-0.00000634,-0.00002426,0.0000
 4746,0.00000053,-0.00003113,0.00006044,-0.00001972,0.00009477,-0.00001
 524,-0.00004224,-0.00019381,-0.00013546,0.00000736,-0.00011538,-0.0007
 8341,0.00057361,0.00049530,-0.00004310,-0.00000205,-0.00002365,0.00000
 889,0.00000749,0.00000234,0.00000116,-0.00000487,0.00000090,0.00000256
 ,-0.00000017,0.00000056,0.00000205,0.00000406,0.00000028,0.00000780,-0
 .00000507,0.00000453,0.00013584,0.00014937,0.00028387,-0.00001857,0.00
 028420,-0.00006971,0.00009336,-0.00020037,0.00020635,-0.00011929,0.000
 41363,0.00031234,0.00019102,0.00192706,-0.00475035,0.00000765,0.000003
 58,0.00000854,0.00001242,-0.00001710,-0.00001987,-0.00000238,-0.000001
 71,0.00000126,-0.00000237,-0.00000173,-0.00000124,-0.00000029,0.000001
 43,0.00000283,0.00000117,0.00000076,-0.00000223,-0.00008730,-0.0000040
 8,0.00004816,0.00001227,0.00003804,-0.00003396,0.00002596,0.00002602,0
 .00002626,-0.01512451,0.02502071,0.00344117,-0.00004400,0.00055406,0.0
 0167564,0.02612223,-0.04590486,-0.05607804,0.00001552,0.00000184,0.000
 00204,0.00000155,-0.00000079,0.00000063,0.00000111,0.00000005,0.000000
 31,0.00000194,0.00000084,0.00000068,-0.00001458,0.00001233,-0.00001575
 ,-0.00004658,0.00002192,0.00000707,-0.00018005,-0.00012075,-0.00011323
 ,-0.00000564,0.00000389,0.00000324,-0.00002479,0.00001100,0.00000705,-
 0.00000376,-0.00000179,0.00000639,0.00000635,0.00000504,0.00000081,0.0
 0000373,-0.00000011,0.00000015,0.00000045,0.00000055,-0.00000142,0.000
 00049,-0.00000069,-0.00000058,-0.00000043,-0.00000534,0.00000134,0.000
 00112,0.00000054,-0.00000046,0.00000014,0.00000105,-0.00000083,-0.0000
 0018,-0.00000028,-0.00000021,0.00000056,0.00000046,0.00000105,-0.00000
 055,0.00000088,0.00000059,-0.00000035,-0.00000085,-0.00000080,0.000014
 82,0.00000429,-0.00000426,0.00000247,-0.00000628,0.00000152,-0.0000005
 9,-0.00000714,-0.00000481,0.00001600,0.00002098,0.00001581,-0.00000155
 ,-0.00000458,-0.00000307,0.,-0.00000802,0.00000078,-0.00000060,0.00001
 863,-0.00001524,0.00028174,-0.00062163,0.00133317,0.00033788,-0.000039
 91,0.00027340,-0.00004498,-0.00008581,-0.00009864,0.00009574,-0.000379
 67,-0.00039144,0.00509083,-0.01110163,-0.00325909,-0.02761722,0.046319
 11,0.06110506,0.00000803,0.00000317,0.00003487,-0.00001670,0.00000117,
 -0.00002083,-0.00000266,0.00000703,0.00001130,0.00004914,0.00012266,0.
 00004162,-0.00012841,-0.00014673,0.00001648,0.00008340,0.00023470,-0.0
 0000759,-0.00001581,-0.00000413,-0.00000295,-0.00000102,-0.00001560,-0
 .00001104,0.00000451,0.00000683,0.00000827,0.00000291,-0.00000159,-0.0
 0000242,0.00000045,0.00000556,0.00000110,0.00000301,-0.00000252,0.0000
 0159,0.00003532,0.00000973,-0.00003531,-0.00003924,0.00000443,0.000007
 81,0.00005699,0.00010127,0.00001137,-0.00038706,-0.00011021,0.00020076
 ,0.00036564,-0.00054535,-0.00016003,-0.00000013,0.00000320,-0.00001262
 ,0.00002992,0.00002997,0.00010755,0.00001103,0.00000982,-0.00000119,-0
 .00000165,-0.00000049,-0.00000110,0.00000025,0.00000089,0.00000140,0.0
 0000184,0.00000183,-0.00000196,-0.00000457,0.00000327,0.00000175,-0.00
 000258,0.00000221,-0.00000563,0.00000135,0.00000306,0.00000254,-0.0029
 3790,-0.00124508,-0.00094415,0.00081596,0.00102554,-0.00071967,-0.1231
 9313,-0.07699761,-0.09488641,0.00000184,-0.00000242,-0.00000032,-0.000
 00070,-0.00000111,-0.00000032,0.00000114,0.00000033,0.00000053,0.00000
 062,0.00000071,0.00000043,0.00000484,0.00001104,0.00000078,-0.00000998
 ,0.00000369,-0.00000642,0.00015494,-0.00001895,-0.00007869,0.00001444,
 0.00000124,0.00000073,0.00002846,0.00002991,0.00000097,0.00012694,-0.0
 0007997,-0.00008304,0.00002292,0.00000195,-0.00003970,-0.00000254,-0.0
 0000078,0.,0.00000133,-0.00000065,-0.00000480,0.00000217,-0.00000158,-
 0.00000164,0.00000001,-0.00000167,-0.00000028,0.00000049,0.00000012,0.
 ,0.00000001,0.00000085,-0.00000039,-0.00000028,-0.00000033,0.00000033,
 0.00000040,0.00000006,0.00000049,-0.00000018,0.00000120,0.00000046,-0.
 00000072,-0.00000112,0.00000087,-0.00000273,-0.00000169,0.00000112,0.0
 0000406,-0.00000222,0.00000168,-0.00000116,0.00000085,0.00000076,0.000
 00073,0.00000095,0.00000246,0.00000025,-0.00000085,0.00000021,-0.00000
 114,0.00000035,-0.00000068,-0.00000023,0.00000144,-0.00000099,0.000432
 10,0.00042433,-0.00001249,0.00020414,-0.00034238,-0.00031727,0.0003262
 1,0.00017412,0.00031079,0.00001767,-0.00029882,-0.00007569,-0.01408892
 ,-0.01502757,-0.01959094,0.00910999,0.00832329,0.01158524,0.12891809,0
 .00003349,0.00003097,0.00005527,-0.00001144,-0.00001399,-0.00007094,0.
 00005857,-0.00000528,0.00001485,0.00002407,0.00006310,0.00008434,-0.00
 034575,-0.00021050,0.00011655,-0.00024312,0.00013467,-0.00004913,-0.00
 004783,0.00000293,-0.00001671,0.00000023,-0.00000115,0.00001402,0.0000
 0615,-0.00000170,-0.00000420,0.00000492,0.00000092,0.00000136,0.000001
 18,0.00000297,0.00000244,0.00000924,-0.00000609,-0.00000259,0.00004825
 ,-0.00002539,0.00002253,-0.00003569,0.00007537,0.00002366,0.00004034,-
 0.00002001,-0.00003305,-0.00018546,0.00010207,-0.00008001,0.00061272,0
 .00121331,0.00026715,0.00000065,0.00001166,-0.00001134,-0.00004899,0.0
 0003878,0.00008147,0.00000377,-0.00000436,-0.00000083,-0.00000241,-0.0
 0000133,-0.00000205,0.00000026,0.00000162,0.00000234,0.00000200,0.0000
 0077,-0.00000180,-0.00002431,-0.00000227,0.00001244,0.00000161,0.00001
 320,-0.00001709,0.00000935,0.00001104,0.00001101,0.01092971,0.00859539
 ,0.01233951,0.00037466,-0.00155397,0.00278484,-0.07782813,-0.12520204,
 -0.09713734,0.00000506,-0.00000317,-0.00000111,0.00000187,-0.00000059,
 0.00000022,0.00000080,-0.00000007,0.00000012,0.00000167,0.00000052,0.0
 0000092,-0.00000398,0.00000735,-0.00000071,-0.00001064,-0.00000013,0.0
 0000525,0.00002012,0.00002665,0.00002720,0.00000659,0.00000866,-0.0000
 0247,0.00000283,0.00000094,0.00000007,0.00002870,-0.00000203,-0.000062
 33,0.00000441,-0.00000663,-0.00001791,0.00000126,-0.00000064,-0.000001
 45,0.00000028,-0.00000015,0.00000073,0.00000082,0.00000027,-0.00000097
 ,0.00000124,-0.00000455,0.00000022,0.00000102,0.00000061,-0.00000047,0
 .00000013,0.00000082,-0.00000058,-0.00000038,-0.00000008,-0.00000008,0
 .00000061,0.00000061,0.00000104,-0.00000051,0.00000108,0.00000093,-0.0
 0000103,-0.00000077,0.,0.00000232,-0.00000131,0.00000103,0.00000205,-0
 .00000003,0.00000043,-0.00000064,-0.00000161,-0.00000007,0.00000473,0.
 00000856,0.00000632,0.00000010,-0.00000206,-0.00000094,-0.00000113,-0.
 00000201,0.00000013,-0.00000022,0.00000793,-0.00000661,-0.00012315,0.0
 0060297,-0.00089585,0.00031668,0.00069336,0.00079352,0.00002432,-0.000
 12731,-0.00002512,-0.00011634,0.00019672,0.00018522,-0.00241651,-0.004
 36844,-0.00415395,-0.01548180,-0.01347890,-0.01684731,0.08435525,0.133
 25914,0.00005245,-0.00003995,-0.00010477,0.00007304,0.00001552,0.00012
 484,-0.00010206,0.00000519,0.00007457,0.00001577,0.00014444,-0.0001285
 1,0.00009635,0.00014795,-0.00005419,-0.00006279,0.00024972,0.00014271,
 0.00003042,-0.00001178,0.00002032,-0.00000959,-0.00000654,-0.00000242,
 0.00000187,0.00000079,-0.00000198,-0.00000156,0.00000145,0.00000107,-0
 .00000157,-0.00000463,-0.00000090,-0.00000597,0.00000498,-0.00000285,-
 0.00002827,0.00012616,-0.00010556,0.00008039,0.00004199,-0.00003474,-0
 .00010127,-0.00015845,-0.00011387,-0.00019947,0.00029882,0.00032336,0.
 00070315,-0.00134110,0.00048460,0.00002996,0.00000740,-0.00000015,-0.0
 0006500,0.00002947,0.00007106,-0.00000165,-0.00000346,-0.00000826,0.00
 000087,0.00000057,0.00000095,0.00000010,-0.00000014,-0.00000261,-0.000
 00004,0.00000024,0.00000133,-0.00001744,0.00000731,0.00000910,0.000000
 66,0.00000303,-0.00000337,0.00000496,0.00000340,-0.00000155,-0.0144760
 9,-0.01522156,-0.01740844,-0.00002920,0.00458685,-0.00445501,-0.094544
 74,-0.09571872,-0.16450812,0.00000199,0.00000702,0.00000388,-0.0000010
 4,0.00000107,-0.00000043,-0.00000124,-0.00000036,-0.00000071,-0.000001
 31,-0.00000048,-0.00000063,0.00001344,0.00000310,0.00002549,-0.0000106
 7,0.00001516,0.00000322,0.00005878,0.00000371,0.00005694,-0.00001436,-
 0.00000315,-0.00000709,-0.00000124,0.00000917,0.00001044,0.00003483,-0
 .00004964,-0.00000145,0.00000222,0.00000004,-0.00001677,0.00000133,0.0
 0000092,-0.00000046,-0.00000048,-0.00000193,0.00000147,-0.00000290,0.0
 0000199,0.00000124,-0.00000114,0.00000287,-0.00000008,-0.00000085,-0.0
 0000035,0.00000034,-0.00000017,-0.00000117,0.00000093,-0.00000005,0.00
 000035,0.00000029,-0.00000034,-0.00000019,-0.00000073,0.00000035,-0.00
 000099,-0.00000070,-0.00000076,-0.00000033,0.00000040,0.00000186,0.000
 00184,0.,0.00000162,-0.00000047,0.00000086,0.00000078,0.00000054,-0.00
 000027,0.00000001,0.00000013,0.00000152,-0.00000042,0.00000014,0.00000
 023,-0.00000007,-0.00000056,0.00000104,-0.00000031,0.00000115,-0.00000
 155,0.00056252,-0.00058904,0.00086930,-0.00113038,-0.00088076,-0.00127
 821,-0.00010481,0.00002316,0.00017484,0.00024860,0.00013205,0.00035787
 ,0.00689783,0.00776352,0.00930760,-0.00270094,-0.00230024,-0.00411093,
 0.10467969,0.10259196,0.18028230,0.00506195,-0.00001192,0.02957366,-0.
 00574047,-0.00000115,0.00067877,-0.00339065,-0.00000041,-0.00245751,0.
 00709102,0.00001287,-0.02588725,-0.06070861,-0.00000711,0.00040042,0.0
 0137554,0.00000032,-0.00040557,0.00173469,0.00000109,0.00026697,-0.000
 06225,0.00012841,-0.00008715,-0.00001580,0.00004195,-0.00001184,0.0000
 1650,0.00000031,0.00002178,-0.00001578,-0.00004160,-0.00001199,-0.0000
 6098,-0.00013110,-0.00008699,-0.00003545,0.00015079,0.00010152,-0.0000
 1378,0.00002917,0.00002651,0.00003259,0.00000005,-0.00003656,-0.000013
 25,-0.00002883,0.00002625,-0.00003565,-0.00015084,0.00010161,-0.000003
 48,0.00002953,0.00001329,-0.00002507,0.00003001,0.00002565,-0.00001745
 ,-0.00000006,-0.00000727,-0.00000394,-0.00002891,0.00001333,-0.0000174
 5,0.00000049,-0.00000746,-0.00002502,-0.00002966,0.00002545,-0.0000224
 0,0.00003181,-0.00000206,-0.00002624,0.00002692,-0.00001119,-0.0000205
 9,-0.00000349,-0.00000894,-0.00002209,-0.00003116,-0.00000204,-0.00002
 074,0.00000299,-0.00000884,-0.00002611,-0.00002727,-0.00001162,0.00084
 502,-0.00000062,0.00113727,-0.00000639,-0.00000082,-0.00000759,-0.0000
 0077,-0.00000009,0.00000023,-0.00000647,0.00000089,-0.00000750,0.00000
 006,-0.00000444,0.00000430,0.00000382,-0.00000003,-0.00000337,0.000000
 04,0.00000423,0.00000430,-0.00003230,-0.00003765,-0.00001058,-0.000001
 11,0.00000130,-0.00000047,-0.00004002,-0.00003174,0.00000871,0.0000003
 1,-0.00000144,-0.00001206,0.00000085,-0.00000141,-0.00000081,0.0000024
 5,-0.00000008,-0.00000149,-0.00000478,0.00000554,0.00000410,-0.0000324
 8,0.00003738,-0.00001014,-0.00000474,-0.00000547,0.00000432,0.00000076
 ,0.00000142,-0.00000074,0.00000228,0.00000008,-0.00000152,0.00000036,0
 .00000140,-0.00001223,-0.00000125,-0.00000116,-0.00000031,-0.00004087,
 0.00003588,0.00001126,-0.00001292,-0.00000982,-0.00004005,-0.00000683,
 0.00001262,0.00002159,0.00000265,-0.00000183,0.00000832,-0.00000111,-0
 .00000764,-0.00000120,0.00000577,-0.00000051,0.00000334,-0.00000003,0.
 00000396,0.00000092,0.00000218,-0.00000830,0.00000424,-0.00001347,0.00
 000909,-0.00004086,0.00000571,0.00000075,0.00000329,0.00000014,-0.0000
 0380,0.00000089,0.00000208,0.00000848,0.00000417,0.00000272,0.00000200
 ,0.00000847,-0.00000111,0.00000797,-0.00000108,-0.00000409,-0.00001459
 ,0.00002437,0.05434451,0.00000175,0.00019456,0.00000808,-0.00000211,0.
 00290072,0.00000134,-0.00000109,0.00507759,0.00000032,-0.00000028,-0.0
 0012943,0.00000086,-0.00000647,-0.02554889,0.00014050,0.00000023,-0.00
 171779,-0.00000088,0.00000191,-0.00219184,-0.00000147,0.00024022,0.000
 14769,-0.00007235,0.00003621,-0.00005950,0.00007538,-0.00000009,-0.000
 05045,0.00000011,-0.00003546,-0.00005968,-0.00007513,-0.00023960,0.000
 14697,0.00007213,0.00021747,0.00015505,0.00008226,0.00005358,-0.000044
 66,-0.00008859,-0.00000038,-0.00007233,0.00000021,-0.00005355,-0.00004
 462,0.00008816,-0.00021832,0.00015500,-0.00008281,0.00008291,0.0000079
 2,0.00007178,0.00001324,-0.00005872,-0.00001403,-0.00005893,-0.0000066
 4,-0.00003412,-0.00008289,0.00000786,-0.00007215,0.00005864,-0.0000064
 2,0.00003433,-0.00001318,-0.00005818,0.00001358,0.00010913,-0.00000183
 ,-0.00007723,0.00000859,-0.00006162,0.00001624,-0.00005758,-0.00000782
 ,0.00003995,-0.00010926,-0.00000097,0.00007694,0.00005748,-0.00000803,
 -0.00003979,-0.00000865,-0.00006182,-0.00001756,0.00000031,0.00177505,
 0.00000075,0.00001592,0.00000403,0.00001018,0.00000005,-0.00000221,0.,
 -0.00001598,0.00000388,-0.00001026,0.00001574,0.00000396,-0.00000850,0
 .00000005,-0.00000398,-0.00000002,-0.00001562,0.00000406,0.00000851,-0
 .00000212,0.00003638,-0.00010003,-0.00000343,0.00000836,0.00000594,0.0
 0004366,-0.00002262,0.00005618,-0.00001371,0.00001654,0.00000485,0.000
 00236,-0.00000070,0.00000212,-0.00000326,0.00000278,0.00000883,-0.0000
 1462,0.00001538,0.00001359,0.00000175,0.00003574,0.00009996,0.00001448
 ,0.00001524,-0.00001365,-0.00000227,-0.00000082,-0.00000215,0.00000330
 ,0.00000282,-0.00000880,0.00001339,0.00001641,-0.00000463,0.00000332,0
 .00000828,-0.00000593,-0.00004170,-0.00001879,-0.00005220,-0.00001780,
 0.00000107,0.00011755,0.00005636,-0.00006538,-0.00009645,-0.00001573,0
 .00001884,-0.00000354,-0.00000484,0.00001044,-0.00000734,0.00000010,-0
 .00000043,-0.00001059,-0.00001784,0.00001675,-0.00001314,0.00000297,0.
 00000009,-0.00000226,0.00001731,0.00000090,-0.00011848,-0.00000005,-0.
 00000047,0.00001058,0.00001794,0.00001673,0.00001313,-0.00000296,0.000
 00008,0.00000231,0.00001572,0.00001904,0.00000401,0.00000506,0.0000106
 0,0.00000758,-0.00005661,-0.00006637,0.00010084,0.00000526,0.01953618,
 -0.00472364,0.00000284,-0.00738973,0.00171940,0.00000103,0.00126071,-0
 .00220674,0.00000162,0.00078827,0.00462828,0.00000305,-0.00768419,0.00
 392950,0.00014827,-0.37356628,0.00063825,0.,0.00031562,-0.00049516,-0.
 00000086,0.00029629,0.00019040,-0.00011893,0.00007514,-0.00000747,-0.0
 0001233,-0.00000780,-0.00002940,-0.00000041,-0.00001517,-0.00000742,0.
 00001215,-0.00000757,0.00018932,0.00012059,0.00007467,-0.00020817,0.00
 014723,0.00007361,0.00000752,0.00002001,-0.00000730,0.00003400,-0.0000
 0012,-0.00001697,0.00000719,-0.00002020,-0.00000687,-0.00020797,-0.000
 14724,0.00007339,0.00004889,-0.00003040,0.00002383,0.00000313,-0.00001
 723,0.00001926,-0.00001186,0.00001152,-0.00002889,0.00004938,0.0000300
 2,0.00002350,-0.00001188,-0.00001177,-0.00002859,0.00000300,0.00001708
 ,0.00001980,-0.00005276,0.00003980,0.00002561,-0.00000547,0.00002193,0
 .00001142,0.00001195,-0.00000994,-0.00002366,-0.00005297,-0.00004032,0
 .00002599,0.00001204,0.00001024,-0.00002380,-0.00000558,-0.00002198,0.
 00001127,-0.00011868,0.00000062,-0.00012106,-0.00000319,0.00000888,-0.
 00000470,-0.00001000,0.00000009,0.00000026,-0.00000311,-0.00000885,-0.
 00000475,0.00000261,-0.00000928,-0.00000284,0.00000997,0.,-0.00000092,
 0.00000260,0.00000943,-0.00000290,-0.00001897,-0.00003473,-0.00009157,
 -0.00000077,0.00001618,-0.00000052,0.00001444,-0.00002315,0.00001139,-
 0.00001241,0.00000924,-0.00000293,-0.00000024,0.00001051,0.00000730,-0
 .00000101,-0.00000178,0.00000529,-0.00001157,0.00000792,0.00000917,-0.
 00001879,0.00003574,-0.00009246,-0.00001151,-0.00000789,0.00000897,-0.
 00000014,-0.00001054,0.00000724,-0.00000086,0.00000176,0.00000525,-0.0
 0001236,-0.00000908,-0.00000287,-0.00000059,-0.00001634,-0.00000063,0.
 00001380,0.00002037,0.00001141,0.00001500,0.00002024,-0.00008439,-0.00
 000879,0.00000402,0.00000335,0.00001269,-0.00000995,-0.00000070,-0.000
 00029,-0.00001476,-0.00000167,0.00000433,-0.00000290,0.00000403,0.0000
 1070,-0.00000723,0.00000892,0.00000079,-0.00000929,0.00000784,0.000014
 65,-0.00001934,-0.00008366,0.00000437,0.00000275,0.00000403,0.00001063
 ,0.00000718,0.00000892,0.00000087,0.00000915,0.00000785,0.00001274,0.0
 0000996,-0.00000070,-0.00000030,0.00001447,-0.00000180,-0.00000938,-0.
 00000407,0.00000315,-0.00333301,-0.00015502,0.38607516\\0.00000104,-0.
 00000193,0.00000159,0.00000031,0.00000469,-0.00000090,0.00000052,-0.00
 000785,-0.00000263,-0.00000061,0.00000567,0.00000297,-0.00000040,-0.00
 000143,-0.00000139,-0.00000030,0.00000136,-0.00000050,0.,0.00000079,0.
 00000095,0.00000028,-0.00000034,0.00000094,0.00000029,0.00000015,0.000
 00130,-0.00000066,-0.00000031,0.00000149,-0.00000007,-0.00000023,0.000
 00073,-0.00000017,0.00000039,0.00000182,0.00000049,-0.00000014,-0.0000
 0089,-0.00000065,0.00000003,-0.00000144,-0.00000012,-0.00000013,-0.000
 00128,-0.00000051,0.00000015,-0.00000075,0.00000084,0.00000025,-0.0000
 0145,-0.00000013,0.00000018,0.00000055,0.00000003,0.00000045,0.0000006
 2,0.00000005,-0.00000011,0.00000050,0.00000053,-0.00000027,-0.00000003
 ,0.00000011,0.00000035,0.00000145,-0.00000057,-0.00000071,0.00000100,-
 0.00000097,-0.00000081,-0.00000122,0.00000005,0.00000015,0.00000031,0.
 00000038,0.00000050,-0.00000030,-0.00000047,0.00000081,-0.00000095,0.0
 0000054,0.00000002,-0.00000114,-0.00000032,-0.00000047,-0.00000018,0.0
 0000087,0.00000057,0.00000066,-0.00000015,0.,0.00000130,-0.00000018,-0
 .00000001,0.00000149,-0.00000017,-0.00000020,0.00000158,-0.00000011,-0
 .00000019,-0.00000100,-0.00000036,0.,-0.00000170,-0.00000022,0.0000000
 9,-0.00000153,0.00000035,-0.00000029,0.00000093,-0.00000036,-0.0000001
 8,0.00000034,-0.00000026,-0.00000025,0.00000010,-0.00000057,-0.0000003
 7,0.00000069,0.00000053,-0.00000007,0.00000041,0.00000057,-0.00000003,
 0.00000081,0.00000021,0.00000025,0.00000125,0.00000006,-0.00000034,-0.
 00000033,-0.00000003,0.00000027,0.00000096,0.00000050,0.00000004,0.000
 00076,0.00000063,0.00000009,0.00000101,-0.00000014,-0.00000024,0.00000
 057,-0.00000049,0.00000010,0.00000067,-0.00000010,0.00000053,0.0000005
 0,0.00000039,-0.00000028,-0.00000093,-0.00000073,0.00000033,-0.0000001
 8,-0.00000064,-0.00000021,-0.00000107,-0.00000015,-0.00000006,-0.00000
 037,0.00000064,0.00000008,-0.00000093,0.00000054,0.00000014,-0.0000014
 8,0.00000030,0.00000002,-0.00000056,0.00000019,-0.00000023,0.00000003,
 0.00000072,-0.00000002,-0.00000110,0.00000022,0.00000039,-0.00000106,0
 .00000021,-0.00000013,-0.00000092,-0.00000022,-0.00000036,-0.00000097,
 -0.00000028,0.00000011,-0.00000067,-0.00000081,0.00000009,-0.00000052,
 -0.00000049,-0.00000087,0.00000007\\\@


 LIFE IS SO UNCERTAIN - EAT DESSERT FIRST.
 Job cpu time:       9 days 12 hours  7 minutes 50.1 seconds.
 File lengths (MBytes):  RWF=   9718 Int=      0 D2E=      0 Chk=     70 Scr=      1
 Normal termination of Gaussian 09 at Sun Nov 14 12:43:45 2021.
