 Entering Gaussian System, Link 0=g09
 Input=NHC27-.gjf
 Output=NHC27-.log
 Initial command:
 /usr/local/gqt/g09/l1.exe "/usr/local/gqt/lixogaussian/Gau-6334.inp" -scrdir="/usr/local/gqt/lixogaussian/"
 Entering Link 1 = /usr/local/gqt/g09/l1.exe PID=      6336.
  
 Copyright (c) 1988,1990,1992,1993,1995,1998,2003,2009,2013,
            Gaussian, Inc.  All Rights Reserved.
  
 This is part of the Gaussian(R) 09 program.  It is based on
 the Gaussian(R) 03 system (copyright 2003, Gaussian, Inc.),
 the Gaussian(R) 98 system (copyright 1998, Gaussian, Inc.),
 the Gaussian(R) 94 system (copyright 1995, Gaussian, Inc.),
 the Gaussian 92(TM) system (copyright 1992, Gaussian, Inc.),
 the Gaussian 90(TM) system (copyright 1990, Gaussian, Inc.),
 the Gaussian 88(TM) system (copyright 1988, Gaussian, Inc.),
 the Gaussian 86(TM) system (copyright 1986, Carnegie Mellon
 University), and the Gaussian 82(TM) system (copyright 1983,
 Carnegie Mellon University). Gaussian is a federally registered
 trademark of Gaussian, Inc.
  
 This software contains proprietary and confidential information,
 including trade secrets, belonging to Gaussian, Inc.
  
 This software is provided under written license and may be
 used, copied, transmitted, or stored only in accord with that
 written license.
  
 The following legend is applicable only to US Government
 contracts under FAR:
  
                    RESTRICTED RIGHTS LEGEND
  
 Use, reproduction and disclosure by the US Government is
 subject to restrictions as set forth in subparagraphs (a)
 and (c) of the Commercial Computer Software - Restricted
 Rights clause in FAR 52.227-19.
  
 Gaussian, Inc.
 340 Quinnipiac St., Bldg. 40, Wallingford CT 06492
  
  
 ---------------------------------------------------------------
 Warning -- This program may not be used in any manner that
 competes with the business of Gaussian, Inc. or will provide
 assistance to any competitor of Gaussian, Inc.  The licensee
 of this program is prohibited from giving any competitor of
 Gaussian, Inc. access to this program.  By using this program,
 the user acknowledges that Gaussian, Inc. is engaged in the
 business of creating and licensing software in the field of
 computational chemistry and represents and warrants to the
 licensee that it is not a competitor of Gaussian, Inc. and that
 it will not use this program in any manner prohibited above.
 ---------------------------------------------------------------
  

 Cite this work as:
 Gaussian 09, Revision D.01,
 M. J. Frisch, G. W. Trucks, H. B. Schlegel, G. E. Scuseria, 
 M. A. Robb, J. R. Cheeseman, G. Scalmani, V. Barone, B. Mennucci, 
 G. A. Petersson, H. Nakatsuji, M. Caricato, X. Li, H. P. Hratchian, 
 A. F. Izmaylov, J. Bloino, G. Zheng, J. L. Sonnenberg, M. Hada, 
 M. Ehara, K. Toyota, R. Fukuda, J. Hasegawa, M. Ishida, T. Nakajima, 
 Y. Honda, O. Kitao, H. Nakai, T. Vreven, J. A. Montgomery, Jr., 
 J. E. Peralta, F. Ogliaro, M. Bearpark, J. J. Heyd, E. Brothers, 
 K. N. Kudin, V. N. Staroverov, T. Keith, R. Kobayashi, J. Normand, 
 K. Raghavachari, A. Rendell, J. C. Burant, S. S. Iyengar, J. Tomasi, 
 M. Cossi, N. Rega, J. M. Millam, M. Klene, J. E. Knox, J. B. Cross, 
 V. Bakken, C. Adamo, J. Jaramillo, R. Gomperts, R. E. Stratmann, 
 O. Yazyev, A. J. Austin, R. Cammi, C. Pomelli, J. W. Ochterski, 
 R. L. Martin, K. Morokuma, V. G. Zakrzewski, G. A. Voth, 
 P. Salvador, J. J. Dannenberg, S. Dapprich, A. D. Daniels, 
 O. Farkas, J. B. Foresman, J. V. Ortiz, J. Cioslowski, 
 and D. J. Fox, Gaussian, Inc., Wallingford CT, 2013.
 
 ******************************************
 Gaussian 09:  ES64L-G09RevD.01 24-Apr-2013
                 5-Oct-2021 
 ******************************************
 %nprocshared=16
 Will use up to   16 processors via shared memory.
 %mem=50GB
 %chk=NHC27-.chk
 ----------------------------------------------------------
 #p opt freq n12sx/6-311+g(d,p) scrf=(iefpcm,solvent=water)
 ----------------------------------------------------------
 1/14=-1,18=20,19=15,26=3,38=1/1,3;
 2/9=110,12=2,17=6,18=5,40=1/2;
 3/5=4,6=6,7=111,11=2,16=1,25=1,30=1,70=2201,71=1,72=1,74=-69/1,2,3;
 4//1;
 5/5=2,38=5,53=1/2;
 6/7=2,8=2,9=2,10=2,28=1/1;
 7//1,2,3,16;
 1/14=-1,18=20,19=15,26=3/3(2);
 2/9=110/2;
 99//99;
 2/9=110/2;
 3/5=4,6=6,7=111,11=2,16=1,25=1,30=1,70=2205,71=1,72=1,74=-69/1,2,3;
 4/5=5,16=3,69=1/1;
 5/5=2,38=5,53=1/2;
 7//1,2,3,16;
 1/14=-1,18=20,19=15,26=3/3(-5);
 2/9=110/2;
 6/7=2,8=2,9=2,10=2,19=2,28=1/1;
 99/9=1/99;
 Leave Link    1 at Tue Oct  5 00:18:53 2021, MaxMem=  6710886400 cpu:         0.7
 (Enter /usr/local/gqt/g09/l101.exe)
 -----
 TITLE
 -----
 Symbolic Z-matrix:
 Charge =  0 Multiplicity = 1
 N                    0    -7.11156  -0.63941  -0.20101 
 N                    0    -7.17596   0.7152    0.40079 
 C                    0    -8.51736   0.9699    0.28499 
 C                    0    -9.34996  -0.04511  -0.19681 
 C                    0    -8.40606  -1.0714   -0.50901 
 C                    0    -6.10345   1.5488    0.96268 
 C                    0    -5.85531  -1.42298  -0.44153 
 C                    0    -9.07879   2.30441   0.6656 
 C                    0    -8.75133  -2.41098  -1.08115 
 H                    0    -6.5312    2.51063   1.32419 
 H                    0    -5.62497   1.0133    1.81301 
 H                    0    -5.34251   1.75353   0.17666 
 H                    0    -6.11124  -2.40271  -0.90349 
 H                    0    -5.18872  -0.85311  -1.12685 
 H                    0    -5.33409  -1.59445   0.52682 
 H                    0    -10.17912   2.30602   0.49817 
 H                    0    -8.86729   2.50246   1.74023 
 H                    0    -8.60759   3.09656   0.0417 
 H                    0    -7.82117  -3.00572  -1.22207 
 H                    0    -9.43202  -2.9477   -0.38303 
 H                    0    -9.25725  -2.27555  -2.06322 
 
 NAtoms=     21 NQM=       21 NQMF=       0 NMMI=      0 NMMIF=      0
                NMic=       0 NMicF=      0.
                    Isotopes and Nuclear Properties:
 (Nuclear quadrupole moments (NQMom) in fm**2, nuclear magnetic moments (NMagM)
  in nuclear magnetons)

  Atom         1           2           3           4           5           6           7           8           9          10
 IAtWgt=          14          14          12          12          12          12          12          12          12           1
 AtmWgt=  14.0030740  14.0030740  12.0000000  12.0000000  12.0000000  12.0000000  12.0000000  12.0000000  12.0000000   1.0078250
 NucSpn=           2           2           0           0           0           0           0           0           0           1
 AtZEff=   0.0000000   0.0000000   0.0000000   0.0000000   0.0000000   0.0000000   0.0000000   0.0000000   0.0000000   0.0000000
 NQMom=    2.0440000   2.0440000   0.0000000   0.0000000   0.0000000   0.0000000   0.0000000   0.0000000   0.0000000   0.0000000
 NMagM=    0.4037610   0.4037610   0.0000000   0.0000000   0.0000000   0.0000000   0.0000000   0.0000000   0.0000000   2.7928460
 AtZNuc=   7.0000000   7.0000000   6.0000000   6.0000000   6.0000000   6.0000000   6.0000000   6.0000000   6.0000000   1.0000000

  Atom        11          12          13          14          15          16          17          18          19          20
 IAtWgt=           1           1           1           1           1           1           1           1           1           1
 AtmWgt=   1.0078250   1.0078250   1.0078250   1.0078250   1.0078250   1.0078250   1.0078250   1.0078250   1.0078250   1.0078250
 NucSpn=           1           1           1           1           1           1           1           1           1           1
 AtZEff=   0.0000000   0.0000000   0.0000000   0.0000000   0.0000000   0.0000000   0.0000000   0.0000000   0.0000000   0.0000000
 NQMom=    0.0000000   0.0000000   0.0000000   0.0000000   0.0000000   0.0000000   0.0000000   0.0000000   0.0000000   0.0000000
 NMagM=    2.7928460   2.7928460   2.7928460   2.7928460   2.7928460   2.7928460   2.7928460   2.7928460   2.7928460   2.7928460
 AtZNuc=   1.0000000   1.0000000   1.0000000   1.0000000   1.0000000   1.0000000   1.0000000   1.0000000   1.0000000   1.0000000

  Atom        21
 IAtWgt=           1
 AtmWgt=   1.0078250
 NucSpn=           1
 AtZEff=   0.0000000
 NQMom=    0.0000000
 NMagM=    2.7928460
 AtZNuc=   1.0000000
 Leave Link  101 at Tue Oct  5 00:18:54 2021, MaxMem=  6710886400 cpu:         6.8
 (Enter /usr/local/gqt/g09/l103.exe)

 GradGradGradGradGradGradGradGradGradGradGradGradGradGradGradGradGradGrad
 Berny optimization.
 Initialization pass.
                           ----------------------------
                           !    Initial Parameters    !
                           ! (Angstroms and Degrees)  !
 --------------------------                            --------------------------
 ! Name  Definition              Value          Derivative Info.                !
 --------------------------------------------------------------------------------
 ! R1    R(1,2)                  1.4837         estimate D2E/DX2                !
 ! R2    R(1,5)                  1.399          estimate D2E/DX2                !
 ! R3    R(1,7)                  1.5            estimate D2E/DX2                !
 ! R4    R(2,3)                  1.3703         estimate D2E/DX2                !
 ! R5    R(2,6)                  1.47           estimate D2E/DX2                !
 ! R6    R(3,4)                  1.3984         estimate D2E/DX2                !
 ! R7    R(3,8)                  1.497          estimate D2E/DX2                !
 ! R8    R(4,5)                  1.4289         estimate D2E/DX2                !
 ! R9    R(5,9)                  1.497          estimate D2E/DX2                !
 ! R10   R(6,10)                 1.113          estimate D2E/DX2                !
 ! R11   R(6,11)                 1.113          estimate D2E/DX2                !
 ! R12   R(6,12)                 1.113          estimate D2E/DX2                !
 ! R13   R(7,13)                 1.113          estimate D2E/DX2                !
 ! R14   R(7,14)                 1.113          estimate D2E/DX2                !
 ! R15   R(7,15)                 1.113          estimate D2E/DX2                !
 ! R16   R(8,16)                 1.113          estimate D2E/DX2                !
 ! R17   R(8,17)                 1.113          estimate D2E/DX2                !
 ! R18   R(8,18)                 1.113          estimate D2E/DX2                !
 ! R19   R(9,19)                 1.113          estimate D2E/DX2                !
 ! R20   R(9,20)                 1.113          estimate D2E/DX2                !
 ! R21   R(9,21)                 1.113          estimate D2E/DX2                !
 ! A1    A(2,1,5)              109.3334         estimate D2E/DX2                !
 ! A2    A(2,1,7)              125.3333         estimate D2E/DX2                !
 ! A3    A(5,1,7)              125.3333         estimate D2E/DX2                !
 ! A4    A(1,2,3)              100.2486         estimate D2E/DX2                !
 ! A5    A(1,2,6)              129.8757         estimate D2E/DX2                !
 ! A6    A(3,2,6)              129.8757         estimate D2E/DX2                !
 ! A7    A(2,3,4)              118.4927         estimate D2E/DX2                !
 ! A8    A(2,3,8)              120.7537         estimate D2E/DX2                !
 ! A9    A(4,3,8)              120.7536         estimate D2E/DX2                !
 ! A10   A(3,4,5)              101.7298         estimate D2E/DX2                !
 ! A11   A(1,5,4)              109.959          estimate D2E/DX2                !
 ! A12   A(1,5,9)              125.0205         estimate D2E/DX2                !
 ! A13   A(4,5,9)              125.0205         estimate D2E/DX2                !
 ! A14   A(2,6,10)             109.4999         estimate D2E/DX2                !
 ! A15   A(2,6,11)             109.4418         estimate D2E/DX2                !
 ! A16   A(2,6,12)             109.4619         estimate D2E/DX2                !
 ! A17   A(10,6,11)            109.4418         estimate D2E/DX2                !
 ! A18   A(10,6,12)            109.4619         estimate D2E/DX2                !
 ! A19   A(11,6,12)            109.52           estimate D2E/DX2                !
 ! A20   A(1,7,13)             109.5            estimate D2E/DX2                !
 ! A21   A(1,7,14)             109.4418         estimate D2E/DX2                !
 ! A22   A(1,7,15)             109.4619         estimate D2E/DX2                !
 ! A23   A(13,7,14)            109.4418         estimate D2E/DX2                !
 ! A24   A(13,7,15)            109.4618         estimate D2E/DX2                !
 ! A25   A(14,7,15)            109.52           estimate D2E/DX2                !
 ! A26   A(3,8,16)             109.5            estimate D2E/DX2                !
 ! A27   A(3,8,17)             109.4418         estimate D2E/DX2                !
 ! A28   A(3,8,18)             109.4618         estimate D2E/DX2                !
 ! A29   A(16,8,17)            109.4419         estimate D2E/DX2                !
 ! A30   A(16,8,18)            109.4618         estimate D2E/DX2                !
 ! A31   A(17,8,18)            109.52           estimate D2E/DX2                !
 ! A32   A(5,9,19)             109.4999         estimate D2E/DX2                !
 ! A33   A(5,9,20)             109.4418         estimate D2E/DX2                !
 ! A34   A(5,9,21)             109.4619         estimate D2E/DX2                !
 ! A35   A(19,9,20)            109.4419         estimate D2E/DX2                !
 ! A36   A(19,9,21)            109.4618         estimate D2E/DX2                !
 ! A37   A(20,9,21)            109.52           estimate D2E/DX2                !
 ! D1    D(5,1,2,3)             -4.3177         estimate D2E/DX2                !
 ! D2    D(5,1,2,6)            175.6823         estimate D2E/DX2                !
 ! D3    D(7,1,2,3)            175.6823         estimate D2E/DX2                !
 ! D4    D(7,1,2,6)             -4.3177         estimate D2E/DX2                !
 ! D5    D(2,1,5,4)              2.5126         estimate D2E/DX2                !
 ! D6    D(2,1,5,9)           -177.4874         estimate D2E/DX2                !
 ! D7    D(7,1,5,4)           -177.4874         estimate D2E/DX2                !
 ! D8    D(7,1,5,9)              2.5126         estimate D2E/DX2                !
 ! D9    D(2,1,7,13)          -180.0            estimate D2E/DX2                !
 ! D10   D(2,1,7,14)           -60.0364         estimate D2E/DX2                !
 ! D11   D(2,1,7,15)            59.9996         estimate D2E/DX2                !
 ! D12   D(5,1,7,13)             0.0            estimate D2E/DX2                !
 ! D13   D(5,1,7,14)           119.9636         estimate D2E/DX2                !
 ! D14   D(5,1,7,15)          -120.0004         estimate D2E/DX2                !
 ! D15   D(1,2,3,4)              5.0772         estimate D2E/DX2                !
 ! D16   D(1,2,3,8)           -174.9228         estimate D2E/DX2                !
 ! D17   D(6,2,3,4)           -174.9228         estimate D2E/DX2                !
 ! D18   D(6,2,3,8)              5.0772         estimate D2E/DX2                !
 ! D19   D(1,2,6,10)           180.0            estimate D2E/DX2                !
 ! D20   D(1,2,6,11)           -60.0364         estimate D2E/DX2                !
 ! D21   D(1,2,6,12)            59.9996         estimate D2E/DX2                !
 ! D22   D(3,2,6,10)             0.0            estimate D2E/DX2                !
 ! D23   D(3,2,6,11)           119.9636         estimate D2E/DX2                !
 ! D24   D(3,2,6,12)          -120.0004         estimate D2E/DX2                !
 ! D25   D(2,3,4,5)             -3.7406         estimate D2E/DX2                !
 ! D26   D(8,3,4,5)            176.2594         estimate D2E/DX2                !
 ! D27   D(2,3,8,16)           180.0            estimate D2E/DX2                !
 ! D28   D(2,3,8,17)           -60.0364         estimate D2E/DX2                !
 ! D29   D(2,3,8,18)            59.9996         estimate D2E/DX2                !
 ! D30   D(4,3,8,16)             0.0            estimate D2E/DX2                !
 ! D31   D(4,3,8,17)           119.9637         estimate D2E/DX2                !
 ! D32   D(4,3,8,18)          -120.0004         estimate D2E/DX2                !
 ! D33   D(3,4,5,1)              0.4371         estimate D2E/DX2                !
 ! D34   D(3,4,5,9)           -179.5629         estimate D2E/DX2                !
 ! D35   D(1,5,9,19)             0.0            estimate D2E/DX2                !
 ! D36   D(1,5,9,20)           119.9636         estimate D2E/DX2                !
 ! D37   D(1,5,9,21)          -120.0004         estimate D2E/DX2                !
 ! D38   D(4,5,9,19)           180.0            estimate D2E/DX2                !
 ! D39   D(4,5,9,20)           -60.0364         estimate D2E/DX2                !
 ! D40   D(4,5,9,21)            59.9996         estimate D2E/DX2                !
 --------------------------------------------------------------------------------
 Trust Radius=3.00D-01 FncErr=1.00D-07 GrdErr=1.00D-06
 Number of steps in this run=    108 maximum allowed number of steps=    126.
 GradGradGradGradGradGradGradGradGradGradGradGradGradGradGradGradGradGrad

 Leave Link  103 at Tue Oct  5 00:18:54 2021, MaxMem=  6710886400 cpu:         0.1
 (Enter /usr/local/gqt/g09/l202.exe)
                          Input orientation:                          
 ---------------------------------------------------------------------
 Center     Atomic      Atomic             Coordinates (Angstroms)
 Number     Number       Type             X           Y           Z
 ---------------------------------------------------------------------
      1          7           0       -7.111561   -0.639405   -0.201014
      2          7           0       -7.175961    0.715195    0.400786
      3          6           0       -8.517361    0.969895    0.284986
      4          6           0       -9.349961   -0.045105   -0.196814
      5          6           0       -8.406061   -1.071405   -0.509014
      6          6           0       -6.103451    1.548800    0.962679
      7          6           0       -5.855311   -1.422979   -0.441527
      8          6           0       -9.078788    2.304414    0.665601
      9          6           0       -8.751329   -2.410982   -1.081145
     10          1           0       -6.531203    2.510627    1.324185
     11          1           0       -5.624972    1.013304    1.813014
     12          1           0       -5.342512    1.753527    0.176660
     13          1           0       -6.111236   -2.402706   -0.903487
     14          1           0       -5.188723   -0.853105   -1.126855
     15          1           0       -5.334093   -1.594454    0.526821
     16          1           0      -10.179120    2.306024    0.498167
     17          1           0       -8.867293    2.502464    1.740225
     18          1           0       -8.607595    3.096561    0.041702
     19          1           0       -7.821171   -3.005722   -1.222071
     20          1           0       -9.432019   -2.947699   -0.383030
     21          1           0       -9.257248   -2.275549   -2.063221
 ---------------------------------------------------------------------
                    Distance matrix (angstroms):
                    1          2          3          4          5
     1  N    0.000000
     2  N    1.483662   0.000000
     3  C    2.191419   1.370268   0.000000
     4  C    2.315954   2.379382   1.398420   0.000000
     5  C    1.399006   2.352195   2.193110   1.428883   0.000000
     6  C    2.675576   1.470000   2.573200   3.797997   3.785943
     7  C    1.500000   2.650546   3.652421   3.764439   2.575749
     8  C    3.645144   2.493290   1.497000   2.517446   3.637092
     9  C    2.569427   3.801432   3.653955   2.595723   1.497000
    10  H    3.547640   2.119423   2.720039   4.097634   4.439219
    11  H    2.999617   2.118684   3.271493   4.362933   4.179986
    12  H    2.999716   2.118939   3.271923   4.408425   4.223236
    13  H    2.145542   3.543455   4.310028   4.067801   2.682199
    14  H    2.144797   2.956749   4.049254   4.339786   3.283389
    15  H    2.145054   2.956830   4.094822   4.364782   3.283827
    16  H    4.309794   3.399880   2.142926   2.588110   3.945273
    17  H    4.089296   2.801612   2.142181   3.236541   4.247864
    18  H    4.031683   2.801682   2.142437   3.236984   4.209019
    19  H    2.673118   4.110375   4.308298   3.486202   2.142925
    20  H    3.278090   4.372752   4.078037   2.909719   2.142181
    21  H    3.278529   4.398595   4.073624   2.909803   2.142438
                    6          7          8          9         10
     6  C    0.000000
     7  C    3.296185   0.000000
     8  C    3.084127   5.050742   0.000000
     9  C    5.183469   3.126049   5.039178   0.000000
    10  H    1.113000   4.364381   2.639403   5.910737   0.000000
    11  H    1.112999   3.327384   3.861653   5.465894   1.817191
    12  H    1.112999   3.276478   3.808188   5.526775   1.817416
    13  H    4.370016   1.113000   5.781469   2.646077   5.411075
    14  H    3.312405   1.113001   5.321225   3.888603   4.373162
    15  H    3.265261   1.113000   5.407696   3.863907   4.349776
    16  H    4.171359   5.786520   1.112999   5.175226   3.745860
    17  H    3.025372   5.407511   1.113001   5.667056   2.372862
    18  H    3.084558   5.313645   1.113000   5.622675   2.509877
    19  H    5.335482   2.641766   5.774292   1.113000   6.211082
    20  H    5.754025   3.888577   5.367410   1.113000   6.412694
    21  H    5.807594   3.863928   5.334265   1.113000   6.466322
                   11         12         13         14         15
    11  H    0.000000
    12  H    1.818067   0.000000
    13  H    4.391464   4.362560   0.000000
    14  H    3.509505   2.918447   1.817192   0.000000
    15  H    2.922209   3.366253   1.817417   1.818069   0.000000
    16  H    4.913269   4.878668   6.378437   6.125753   6.220035
    17  H    3.568689   3.928069   6.216571   5.745596   5.544420
    18  H    4.046424   3.533089   6.112866   5.352950   5.740799
    19  H    5.494324   5.545327   1.840924   3.401854   3.351993
    20  H    5.916567   6.256105   3.405215   4.790215   4.410453
    21  H    6.247814   6.047783   3.355375   4.410558   4.750090
                   16         17         18         19         20
    16  H    0.000000
    17  H    1.817192   0.000000
    18  H    1.817416   1.818069   0.000000
    19  H    6.060841   6.341110   6.281198   0.000000
    20  H    5.379245   5.876343   6.114994   1.817192   0.000000
    21  H    5.329293   6.119451   5.806231   1.817417   1.818068
                   21
    21  H    0.000000
 Stoichiometry    C7H12N2
 Framework group  C1[X(C7H12N2)]
 Deg. of freedom    57
 Full point group                 C1      NOp   1
 Largest Abelian subgroup         C1      NOp   1
 Largest concise Abelian subgroup C1      NOp   1
                         Standard orientation:                         
 ---------------------------------------------------------------------
 Center     Atomic      Atomic             Coordinates (Angstroms)
 Number     Number       Type             X           Y           Z
 ---------------------------------------------------------------------
      1          7           0       -0.682426    0.587866    0.018766
      2          7           0        0.800307    0.570825   -0.030870
      3          6           0        1.029893   -0.779632    0.003657
      4          6           0       -0.068213   -1.644356   -0.040990
      5          6           0       -1.162383   -0.725559   -0.023352
      6          6           0        1.753931    1.687507   -0.098109
      7          6           0       -1.533544    1.820263    0.101193
      8          6           0        2.424575   -1.317108    0.087273
      9          6           0       -2.608624   -1.111386   -0.046519
     10          1           0        2.792597    1.288220   -0.120747
     11          1           0        1.564999    2.280986   -1.020527
     12          1           0        1.626292    2.338480    0.795597
     13          1           0       -2.607576    1.529206    0.123763
     14          1           0       -1.282525    2.382514    1.028357
     15          1           0       -1.342155    2.463192   -0.786942
     16          1           0        2.393652   -2.429553    0.103917
     17          1           0        3.006777   -0.975887   -0.797815
     18          1           0        2.909985   -0.945671    1.017424
     19          1           0       -3.238304   -0.193882   -0.025077
     20          1           0       -2.823733   -1.686721   -0.974681
     21          1           0       -2.838982   -1.740099    0.842539
 ---------------------------------------------------------------------
 Rotational constants (GHZ):      2.3788536      1.4756793      0.9349103
 Leave Link  202 at Tue Oct  5 00:18:54 2021, MaxMem=  6710886400 cpu:         0.0
 (Enter /usr/local/gqt/g09/l301.exe)
 Standard basis: 6-311+G(d,p) (5D, 7F)
 Ernie: Thresh=  0.10000D-02 Tol=  0.10000D-05 Strict=F.
 There are   279 symmetry adapted cartesian basis functions of A   symmetry.
 There are   270 symmetry adapted basis functions of A   symmetry.
   270 basis functions,   420 primitive gaussians,   279 cartesian basis functions
    34 alpha electrons       34 beta electrons
       nuclear repulsion energy       451.3515571064 Hartrees.
 IExCor= 5547 DFT=T Ex+Corr=N12SX ExCW=0 ScaHFX=  0.250000
 ScaDFX=  1.000000  1.000000  1.000000  1.000000 ScalE2=  1.000000  1.000000
 IRadAn=      0 IRanWt=     -1 IRanGd=            0 ICorTp=0 IEmpDi=  4
  HFx wShort=  0.110000 wLong=  0.000000 cFull=  0.000000 cShort=  1.000000 cLong=  0.000000
  DFx wShort=  0.110000 wLong=  0.000000 cFull=  0.000000 cShort=  1.000000 cLong=  0.000000
 NAtoms=   21 NActive=   21 NUniq=   21 SFac= 1.00D+00 NAtFMM=   60 NAOKFM=F Big=F
 Integral buffers will be    131072 words long.
 Raffenetti 2 integral format.
 Two-electron integral symmetry is turned on.
 ------------------------------------------------------------------------------
 Polarizable Continuum Model (PCM)
 =================================
 Model                : PCM (using non-symmetric T matrix).
 Atomic radii         : UFF (Universal Force Field).
 Polarization charges : Total charges.
 Charge compensation  : None.
 Solution method      : On-the-fly selection.
 Cavity type          : Scaled VdW (van der Waals Surface) (Alpha=1.100).
 Cavity algorithm     : GePol (No added spheres)
                        Default sphere list used, NSphG=   21.
                        Lebedev-Laikov grids with approx.  5.0 points / Ang**2.
                        Smoothing algorithm: Karplus/York (Gamma=1.0000).
                        Polarization charges: spherical gaussians, with
                                              point-specific exponents (IZeta= 3).
                        Self-potential: point-specific (ISelfS= 7).
                        Self-field    : sphere-specific E.n sum rule (ISelfD= 2).
 1st derivatives      : Analytical E(r).r(x)/FMM algorithm (CHGder, D1EAlg=3).
                        Cavity 1st derivative terms included.
 Solvent              : Water, Eps=  78.355300 Eps(inf)=   1.777849
 ------------------------------------------------------------------------------
 GePol: Number of generator spheres                  =      21
 GePol: Total number of spheres                      =      21
 GePol: Number of exposed spheres                    =      21 (100.00%)
 GePol: Number of points                             =    1611
 GePol: Average weight of points                     =       0.13
 GePol: Minimum weight of points                     =   0.20D-10
 GePol: Maximum weight of points                     =    0.20577
 GePol: Number of points with low weight             =     105
 GePol: Fraction of low-weight points (<1% of avg)   =       6.52%
 GePol: Cavity surface area                          =    213.259 Ang**2
 GePol: Cavity volume                                =    212.424 Ang**3
 Leave Link  301 at Tue Oct  5 00:18:54 2021, MaxMem=  6710886400 cpu:         0.6
 (Enter /usr/local/gqt/g09/l302.exe)
 NPDir=0 NMtPBC=     1 NCelOv=     1 NCel=       1 NClECP=     1 NCelD=      1
         NCelK=      1 NCelE2=     1 NClLst=     1 CellRange=     0.0.
 One-electron integrals computed using PRISM.
 NBasis=   270 RedAO= T EigKep=  2.16D-06  NBF=   270
 NBsUse=   270 1.00D-06 EigRej= -1.00D+00 NBFU=   270
 Precomputing XC quadrature grid using
 IXCGrd= 4 IRadAn=           0 IRanWt=          -1 IRanGd=           0 AccXCQ= 0.00D+00.
 Generated NRdTot=       0 NPtTot=           0 NUsed=           0 NTot=          32
 NSgBfM=   279   279   279   279   279 MxSgAt=    21 MxSgA2=    21.
 Leave Link  302 at Tue Oct  5 00:18:54 2021, MaxMem=  6710886400 cpu:         3.6
 (Enter /usr/local/gqt/g09/l303.exe)
 DipDrv:  MaxL=1.
 Leave Link  303 at Tue Oct  5 00:18:54 2021, MaxMem=  6710886400 cpu:         0.6
 (Enter /usr/local/gqt/g09/l401.exe)
 ExpMin= 4.38D-02 ExpMax= 6.29D+03 ExpMxC= 9.49D+02 IAcc=2 IRadAn=         4 AccDes= 0.00D+00
 Harris functional with IExCor= 5547 and IRadAn=       4 diagonalized for initial guess.
 HarFok:  IExCor= 5547 AccDes= 0.00D+00 IRadAn=         4 IDoV= 1 UseB2=F ITyADJ=14
 ICtDFT=  3500011 ScaDFX=  1.000000  1.000000  1.000000  1.000000
 FoFCou: FMM=F IPFlag=           0 FMFlag=      100000 FMFlg1=           0
         NFxFlg=           0 DoJE=T BraDBF=F KetDBF=T FulRan=T
         wScrn=  0.000000 ICntrl=     500 IOpCl=  0 I1Cent=   200000004 NGrid=           0
         NMat0=    1 NMatS0=      1 NMatT0=    0 NMatD0=    1 NMtDS0=    0 NMtDT0=    0
 Petite list used in FoFCou.
 Harris En= -371.175477324997    
 JPrj=0 DoOrth=F DoCkMO=F.
 Leave Link  401 at Tue Oct  5 00:18:55 2021, MaxMem=  6710886400 cpu:         9.4
 (Enter /usr/local/gqt/g09/l502.exe)
 Closed shell SCF:
 Using DIIS extrapolation, IDIIS=  1040.
 Integral symmetry usage will be decided dynamically.
 Keep R1 ints in memory in canonical form, NReq=1349733295.
 IVT=      258625 IEndB=      258625 NGot=  6710886400 MDV=  5372128966
 LenX=  5372128966 LenY=  5372050684
 Requested convergence on RMS density matrix=1.00D-08 within 128 cycles.
 Requested convergence on MAX density matrix=1.00D-06.
 Requested convergence on             energy=1.00D-06.
 No special actions if energy rises.
 FoFCou: FMM=F IPFlag=           0 FMFlag=           0 FMFlg1=           0
         NFxFlg=           0 DoJE=F BraDBF=F KetDBF=F FulRan=T
         wScrn=  0.000000 ICntrl=     600 IOpCl=  0 I1Cent=           0 NGrid=           0
         NMat0=    1 NMatS0=  36585 NMatT0=    0 NMatD0=    1 NMtDS0=    0 NMtDT0=    0
 Symmetry not used in FoFCou.

 Cycle   1  Pass 1  IDiag  1:
 Inv3:  Mode=1 IEnd=     7785963.
 Iteration    1 A*A^-1 deviation from unit magnitude is 6.00D-15 for   1603.
 Iteration    1 A*A^-1 deviation from orthogonality  is 2.59D-15 for   1415    104.
 Iteration    1 A^-1*A deviation from unit magnitude is 5.77D-15 for   1603.
 Iteration    1 A^-1*A deviation from orthogonality  is 2.12D-10 for    916    899.
 Iteration    2 A*A^-1 deviation from unit magnitude is 3.11D-15 for    327.
 Iteration    2 A*A^-1 deviation from orthogonality  is 3.60D-15 for   1416    105.
 Iteration    2 A^-1*A deviation from unit magnitude is 8.88D-16 for     83.
 Iteration    2 A^-1*A deviation from orthogonality  is 6.71D-16 for   1574    110.
 E= -382.904773872535    
 DIIS: error= 8.68D-02 at cycle   1 NSaved=   1.
 NSaved= 1 IEnMin= 1 EnMin= -382.904773872535     IErMin= 1 ErrMin= 8.68D-02
 ErrMax= 8.68D-02  0.00D+00 EMaxC= 1.00D-01 BMatC= 1.17D+00 BMatP= 1.17D+00
 IDIUse=3 WtCom= 1.32D-01 WtEn= 8.68D-01
 Coeff-Com:  0.100D+01
 Coeff-En:   0.100D+01
 Coeff:      0.100D+01
 Gap=     0.157 Goal=   None    Shift=    0.000
 GapD=    0.157 DampG=1.000 DampE=0.500 DampFc=0.5000 IDamp=-1.
 Damping current iteration by 5.00D-01
 RMSDP=2.68D-02 MaxDP=1.07D+00              OVMax= 8.88D-01

 Cycle   2  Pass 1  IDiag  1:
 E= -382.422653267979     Delta-E=        0.482120604557 Rises=F Damp=T
 DIIS: error= 5.33D-02 at cycle   2 NSaved=   2.
 NSaved= 2 IEnMin= 1 EnMin= -382.904773872535     IErMin= 2 ErrMin= 5.33D-02
 ErrMax= 5.33D-02  0.00D+00 EMaxC= 1.00D-01 BMatC= 5.09D-01 BMatP= 1.17D+00
 IDIUse=3 WtCom= 4.67D-01 WtEn= 5.33D-01
 Coeff-Com:  0.266D+00 0.734D+00
 Coeff-En:   0.738D+00 0.262D+00
 Coeff:      0.517D+00 0.483D+00
 Gap=    -0.212 Goal=   None    Shift=    0.000
 RMSDP=1.98D-02 MaxDP=8.27D-01 DE= 4.82D-01 OVMax= 9.62D-01

 Cycle   3  Pass 1  IDiag  1:
 E= -383.195560680823     Delta-E=       -0.772907412844 Rises=F Damp=F
 DIIS: error= 2.19D-02 at cycle   3 NSaved=   3.
 NSaved= 3 IEnMin= 3 EnMin= -383.195560680823     IErMin= 3 ErrMin= 2.19D-02
 ErrMax= 2.19D-02  0.00D+00 EMaxC= 1.00D-01 BMatC= 5.18D-02 BMatP= 5.09D-01
 IDIUse=3 WtCom= 7.81D-01 WtEn= 2.19D-01
 Coeff-Com: -0.544D-01 0.231D+00 0.824D+00
 Coeff-En:   0.000D+00 0.000D+00 0.100D+01
 Coeff:     -0.425D-01 0.180D+00 0.862D+00
 Gap=     0.135 Goal=   None    Shift=    0.000
 RMSDP=9.49D-03 MaxDP=1.34D+00 DE=-7.73D-01 OVMax= 9.94D-02

 Cycle   4  Pass 1  IDiag  1:
 E= -383.233405062637     Delta-E=       -0.037844381814 Rises=F Damp=F
 DIIS: error= 7.28D-03 at cycle   4 NSaved=   4.
 NSaved= 4 IEnMin= 4 EnMin= -383.233405062637     IErMin= 4 ErrMin= 7.28D-03
 ErrMax= 7.28D-03  0.00D+00 EMaxC= 1.00D-01 BMatC= 1.49D-02 BMatP= 5.18D-02
 IDIUse=3 WtCom= 9.27D-01 WtEn= 7.28D-02
 Coeff-Com: -0.255D-01 0.966D-01 0.442D+00 0.487D+00
 Coeff-En:   0.000D+00 0.000D+00 0.217D+00 0.783D+00
 Coeff:     -0.237D-01 0.895D-01 0.426D+00 0.509D+00
 Gap=     0.160 Goal=   None    Shift=    0.000
 RMSDP=1.85D-03 MaxDP=8.64D-02 DE=-3.78D-02 OVMax= 4.60D-02

 Cycle   5  Pass 1  IDiag  1:
 E= -383.246203729767     Delta-E=       -0.012798667130 Rises=F Damp=F
 DIIS: error= 3.20D-03 at cycle   5 NSaved=   5.
 NSaved= 5 IEnMin= 5 EnMin= -383.246203729767     IErMin= 5 ErrMin= 3.20D-03
 ErrMax= 3.20D-03  0.00D+00 EMaxC= 1.00D-01 BMatC= 1.84D-03 BMatP= 1.49D-02
 IDIUse=3 WtCom= 9.68D-01 WtEn= 3.20D-02
 Coeff-Com: -0.125D-01 0.327D-01 0.762D-01 0.239D+00 0.665D+00
 Coeff-En:   0.000D+00 0.000D+00 0.000D+00 0.833D-01 0.917D+00
 Coeff:     -0.121D-01 0.316D-01 0.738D-01 0.234D+00 0.673D+00
 Gap=     0.157 Goal=   None    Shift=    0.000
 RMSDP=2.18D-03 MaxDP=3.68D-01 DE=-1.28D-02 OVMax= 2.28D-02

 Cycle   6  Pass 1  IDiag  1:
 E= -383.247669521091     Delta-E=       -0.001465791324 Rises=F Damp=F
 DIIS: error= 2.02D-03 at cycle   6 NSaved=   6.
 NSaved= 6 IEnMin= 6 EnMin= -383.247669521091     IErMin= 6 ErrMin= 2.02D-03
 ErrMax= 2.02D-03  0.00D+00 EMaxC= 1.00D-01 BMatC= 5.14D-04 BMatP= 1.84D-03
 IDIUse=3 WtCom= 9.80D-01 WtEn= 2.02D-02
 Coeff-Com: -0.608D-02 0.774D-02-0.370D-01 0.798D-01 0.487D+00 0.469D+00
 Coeff-En:   0.000D+00 0.000D+00 0.000D+00 0.000D+00 0.954D-01 0.905D+00
 Coeff:     -0.596D-02 0.759D-02-0.363D-01 0.782D-01 0.479D+00 0.477D+00
 Gap=     0.156 Goal=   None    Shift=    0.000
 RMSDP=8.08D-04 MaxDP=1.38D-01 DE=-1.47D-03 OVMax= 1.23D-02

 Cycle   7  Pass 1  IDiag  1:
 E= -383.248130352786     Delta-E=       -0.000460831694 Rises=F Damp=F
 DIIS: error= 4.80D-04 at cycle   7 NSaved=   7.
 NSaved= 7 IEnMin= 7 EnMin= -383.248130352786     IErMin= 7 ErrMin= 4.80D-04
 ErrMax= 4.80D-04  0.00D+00 EMaxC= 1.00D-01 BMatC= 3.41D-05 BMatP= 5.14D-04
 IDIUse=3 WtCom= 9.95D-01 WtEn= 4.80D-03
 Coeff-Com: -0.271D-02 0.167D-02-0.314D-01 0.229D-01 0.216D+00 0.288D+00
 Coeff-Com:  0.506D+00
 Coeff-En:   0.000D+00 0.000D+00 0.000D+00 0.000D+00 0.000D+00 0.000D+00
 Coeff-En:   0.100D+01
 Coeff:     -0.270D-02 0.166D-02-0.312D-01 0.227D-01 0.215D+00 0.286D+00
 Coeff:      0.508D+00
 Gap=     0.157 Goal=   None    Shift=    0.000
 RMSDP=2.01D-04 MaxDP=3.18D-02 DE=-4.61D-04 OVMax= 2.39D-03

 Cycle   8  Pass 1  IDiag  1:
 E= -383.248161349021     Delta-E=       -0.000030996235 Rises=F Damp=F
 DIIS: error= 7.08D-05 at cycle   8 NSaved=   8.
 NSaved= 8 IEnMin= 8 EnMin= -383.248161349021     IErMin= 8 ErrMin= 7.08D-05
 ErrMax= 7.08D-05  0.00D+00 EMaxC= 1.00D-01 BMatC= 1.12D-06 BMatP= 3.41D-05
 IDIUse=1 WtCom= 1.00D+00 WtEn= 0.00D+00
 Coeff-Com: -0.465D-03-0.169D-03-0.107D-01-0.326D-03 0.366D-01 0.666D-01
 Coeff-Com:  0.195D+00 0.713D+00
 Coeff:     -0.465D-03-0.169D-03-0.107D-01-0.326D-03 0.366D-01 0.666D-01
 Coeff:      0.195D+00 0.713D+00
 Gap=     0.156 Goal=   None    Shift=    0.000
 RMSDP=1.22D-04 MaxDP=2.10D-02 DE=-3.10D-05 OVMax= 6.21D-04

 Cycle   9  Pass 1  IDiag  1:
 E= -383.248162540700     Delta-E=       -0.000001191680 Rises=F Damp=F
 DIIS: error= 2.06D-05 at cycle   9 NSaved=   9.
 NSaved= 9 IEnMin= 9 EnMin= -383.248162540700     IErMin= 9 ErrMin= 2.06D-05
 ErrMax= 2.06D-05  0.00D+00 EMaxC= 1.00D-01 BMatC= 1.15D-07 BMatP= 1.12D-06
 IDIUse=1 WtCom= 1.00D+00 WtEn= 0.00D+00
 Coeff-Com: -0.231D-04-0.458D-04-0.130D-02-0.944D-03 0.132D-02 0.614D-02
 Coeff-Com:  0.345D-01 0.298D+00 0.662D+00
 Coeff:     -0.231D-04-0.458D-04-0.130D-02-0.944D-03 0.132D-02 0.614D-02
 Coeff:      0.345D-01 0.298D+00 0.662D+00
 Gap=     0.156 Goal=   None    Shift=    0.000
 RMSDP=5.25D-06 MaxDP=3.39D-04 DE=-1.19D-06 OVMax= 1.54D-04

 Cycle  10  Pass 1  IDiag  1:
 E= -383.248162641237     Delta-E=       -0.000000100537 Rises=F Damp=F
 DIIS: error= 1.28D-05 at cycle  10 NSaved=  10.
 NSaved=10 IEnMin=10 EnMin= -383.248162641237     IErMin=10 ErrMin= 1.28D-05
 ErrMax= 1.28D-05  0.00D+00 EMaxC= 1.00D-01 BMatC= 2.18D-08 BMatP= 1.15D-07
 IDIUse=1 WtCom= 1.00D+00 WtEn= 0.00D+00
 Coeff-Com:  0.455D-04-0.504D-04 0.296D-03-0.575D-03-0.289D-02-0.302D-02
 Coeff-Com:  0.680D-03 0.106D+00 0.381D+00 0.519D+00
 Coeff:      0.455D-04-0.504D-04 0.296D-03-0.575D-03-0.289D-02-0.302D-02
 Coeff:      0.680D-03 0.106D+00 0.381D+00 0.519D+00
 Gap=     0.156 Goal=   None    Shift=    0.000
 RMSDP=3.70D-06 MaxDP=5.93D-04 DE=-1.01D-07 OVMax= 4.11D-05

 Cycle  11  Pass 1  IDiag  1:
 E= -383.248162660173     Delta-E=       -0.000000018936 Rises=F Damp=F
 DIIS: error= 3.39D-06 at cycle  11 NSaved=  11.
 NSaved=11 IEnMin=11 EnMin= -383.248162660173     IErMin=11 ErrMin= 3.39D-06
 ErrMax= 3.39D-06  0.00D+00 EMaxC= 1.00D-01 BMatC= 1.19D-09 BMatP= 2.18D-08
 IDIUse=1 WtCom= 1.00D+00 WtEn= 0.00D+00
 Coeff-Com:  0.182D-04-0.170D-04 0.207D-03-0.567D-04-0.639D-03-0.888D-03
 Coeff-Com: -0.147D-02 0.132D-01 0.739D-01 0.133D+00 0.783D+00
 Coeff:      0.182D-04-0.170D-04 0.207D-03-0.567D-04-0.639D-03-0.888D-03
 Coeff:     -0.147D-02 0.132D-01 0.739D-01 0.133D+00 0.783D+00
 Gap=     0.156 Goal=   None    Shift=    0.000
 RMSDP=5.19D-07 MaxDP=2.65D-05 DE=-1.89D-08 OVMax= 9.83D-06

 Cycle  12  Pass 1  IDiag  1:
 E= -383.248162661111     Delta-E=       -0.000000000938 Rises=F Damp=F
 DIIS: error= 1.35D-06 at cycle  12 NSaved=  12.
 NSaved=12 IEnMin=12 EnMin= -383.248162661111     IErMin=12 ErrMin= 1.35D-06
 ErrMax= 1.35D-06  0.00D+00 EMaxC= 1.00D-01 BMatC= 2.01D-10 BMatP= 1.19D-09
 IDIUse=1 WtCom= 1.00D+00 WtEn= 0.00D+00
 Coeff-Com:  0.542D-05-0.557D-05 0.713D-04 0.440D-04 0.785D-04-0.454D-05
 Coeff-Com: -0.709D-03-0.666D-02-0.108D-01-0.103D-01 0.374D+00 0.654D+00
 Coeff:      0.542D-05-0.557D-05 0.713D-04 0.440D-04 0.785D-04-0.454D-05
 Coeff:     -0.709D-03-0.666D-02-0.108D-01-0.103D-01 0.374D+00 0.654D+00
 Gap=     0.156 Goal=   None    Shift=    0.000
 RMSDP=1.94D-07 MaxDP=8.02D-06 DE=-9.38D-10 OVMax= 3.46D-06

 Cycle  13  Pass 1  IDiag  1:
 E= -383.248162661299     Delta-E=       -0.000000000188 Rises=F Damp=F
 DIIS: error= 2.41D-07 at cycle  13 NSaved=  13.
 NSaved=13 IEnMin=13 EnMin= -383.248162661299     IErMin=13 ErrMin= 2.41D-07
 ErrMax= 2.41D-07  0.00D+00 EMaxC= 1.00D-01 BMatC= 1.22D-11 BMatP= 2.01D-10
 IDIUse=1 WtCom= 1.00D+00 WtEn= 0.00D+00
 Coeff-Com:  0.769D-06-0.106D-05 0.890D-05 0.182D-04 0.853D-04 0.828D-04
 Coeff-Com: -0.959D-04-0.289D-02-0.926D-02-0.185D-01 0.506D-01 0.235D+00
 Coeff-Com:  0.745D+00
 Coeff:      0.769D-06-0.106D-05 0.890D-05 0.182D-04 0.853D-04 0.828D-04
 Coeff:     -0.959D-04-0.289D-02-0.926D-02-0.185D-01 0.506D-01 0.235D+00
 Coeff:      0.745D+00
 Gap=     0.156 Goal=   None    Shift=    0.000
 RMSDP=5.55D-08 MaxDP=6.42D-06 DE=-1.88D-10 OVMax= 1.22D-06

 Cycle  14  Pass 1  IDiag  1:
 E= -383.248162661321     Delta-E=       -0.000000000022 Rises=F Damp=F
 DIIS: error= 9.55D-08 at cycle  14 NSaved=  14.
 NSaved=14 IEnMin=14 EnMin= -383.248162661321     IErMin=14 ErrMin= 9.55D-08
 ErrMax= 9.55D-08  0.00D+00 EMaxC= 1.00D-01 BMatC= 1.78D-12 BMatP= 1.22D-11
 IDIUse=1 WtCom= 1.00D+00 WtEn= 0.00D+00
 Coeff-Com:  0.111D-06-0.269D-06 0.399D-06 0.794D-05 0.470D-04 0.487D-04
 Coeff-Com: -0.360D-05-0.115D-02-0.455D-02-0.106D-01 0.272D-02 0.924D-01
 Coeff-Com:  0.444D+00 0.477D+00
 Coeff:      0.111D-06-0.269D-06 0.399D-06 0.794D-05 0.470D-04 0.487D-04
 Coeff:     -0.360D-05-0.115D-02-0.455D-02-0.106D-01 0.272D-02 0.924D-01
 Coeff:      0.444D+00 0.477D+00
 Gap=     0.156 Goal=   None    Shift=    0.000
 RMSDP=2.41D-08 MaxDP=3.43D-06 DE=-2.18D-11 OVMax= 4.40D-07

 Cycle  15  Pass 1  IDiag  1:
 E= -383.248162661323     Delta-E=       -0.000000000002 Rises=F Damp=F
 DIIS: error= 1.23D-08 at cycle  15 NSaved=  15.
 NSaved=15 IEnMin=15 EnMin= -383.248162661323     IErMin=15 ErrMin= 1.23D-08
 ErrMax= 1.23D-08  0.00D+00 EMaxC= 1.00D-01 BMatC= 3.80D-14 BMatP= 1.78D-12
 IDIUse=1 WtCom= 1.00D+00 WtEn= 0.00D+00
 Coeff-Com: -0.493D-08-0.254D-08-0.511D-06 0.538D-06 0.408D-05 0.332D-05
 Coeff-Com:  0.551D-05 0.292D-04-0.199D-03-0.125D-02-0.416D-02 0.225D-02
 Coeff-Com:  0.501D-01 0.144D+00 0.809D+00
 Coeff:     -0.493D-08-0.254D-08-0.511D-06 0.538D-06 0.408D-05 0.332D-05
 Coeff:      0.551D-05 0.292D-04-0.199D-03-0.125D-02-0.416D-02 0.225D-02
 Coeff:      0.501D-01 0.144D+00 0.809D+00
 Gap=     0.156 Goal=   None    Shift=    0.000
 RMSDP=1.49D-08 MaxDP=2.46D-06 DE=-2.16D-12 OVMax= 4.88D-08

 Cycle  16  Pass 1  IDiag  1:
 E= -383.248162661323     Delta-E=        0.000000000000 Rises=F Damp=F
 DIIS: error= 1.45D-09 at cycle  16 NSaved=  16.
 NSaved=16 IEnMin=16 EnMin= -383.248162661323     IErMin=16 ErrMin= 1.45D-09
 ErrMax= 1.45D-09  0.00D+00 EMaxC= 1.00D-01 BMatC= 7.80D-16 BMatP= 3.80D-14
 IDIUse=1 WtCom= 1.00D+00 WtEn= 0.00D+00
 Large coefficients: NSaved= 16 BigCof=    0.00 CofMax=   10.00 Det=-4.69D-15
 Inversion failed.  Reducing to 15 matrices.
 Coeff-Com: -0.194D-08-0.162D-06 0.261D-07 0.126D-06-0.985D-07 0.222D-05
 Coeff-Com:  0.308D-04 0.471D-04-0.163D-03-0.117D-02-0.137D-02 0.416D-02
 Coeff-Com:  0.301D-01 0.227D+00 0.742D+00
 Coeff:     -0.194D-08-0.162D-06 0.261D-07 0.126D-06-0.985D-07 0.222D-05
 Coeff:      0.308D-04 0.471D-04-0.163D-03-0.117D-02-0.137D-02 0.416D-02
 Coeff:      0.301D-01 0.227D+00 0.742D+00
 Gap=     0.156 Goal=   None    Shift=    0.000
 RMSDP=1.97D-09 MaxDP=1.51D-07 DE=-2.27D-13 OVMax= 4.90D-09

 Error on total polarization charges =  0.01894
 SCF Done:  E(RN12SX) =  -383.248162661     A.U. after   16 cycles
            NFock= 16  Conv=0.20D-08     -V/T= 2.0086
 KE= 3.799879408391D+02 PE=-1.791671000380D+03 EE= 5.770833397733D+02
 Leave Link  502 at Tue Oct  5 00:19:30 2021, MaxMem=  6710886400 cpu:       445.5
 (Enter /usr/local/gqt/g09/l601.exe)
 Copying SCF densities to generalized density rwf, IOpCl= 0 IROHF=0.

 **********************************************************************

            Population analysis using the SCF density.

 **********************************************************************

 Orbital symmetries:
       Occupied  (A) (A) (A) (A) (A) (A) (A) (A) (A) (A) (A) (A)
                 (A) (A) (A) (A) (A) (A) (A) (A) (A) (A) (A) (A)
                 (A) (A) (A) (A) (A) (A) (A) (A) (A) (A)
       Virtual   (A) (A) (A) (A) (A) (A) (A) (A) (A) (A) (A) (A)
                 (A) (A) (A) (A) (A) (A) (A) (A) (A) (A) (A) (A)
                 (A) (A) (A) (A) (A) (A) (A) (A) (A) (A) (A) (A)
                 (A) (A) (A) (A) (A) (A) (A) (A) (A) (A) (A) (A)
                 (A) (A) (A) (A) (A) (A) (A) (A) (A) (A) (A) (A)
                 (A) (A) (A) (A) (A) (A) (A) (A) (A) (A) (A) (A)
                 (A) (A) (A) (A) (A) (A) (A) (A) (A) (A) (A) (A)
                 (A) (A) (A) (A) (A) (A) (A) (A) (A) (A) (A) (A)
                 (A) (A) (A) (A) (A) (A) (A) (A) (A) (A) (A) (A)
                 (A) (A) (A) (A) (A) (A) (A) (A) (A) (A) (A) (A)
                 (A) (A) (A) (A) (A) (A) (A) (A) (A) (A) (A) (A)
                 (A) (A) (A) (A) (A) (A) (A) (A) (A) (A) (A) (A)
                 (A) (A) (A) (A) (A) (A) (A) (A) (A) (A) (A) (A)
                 (A) (A) (A) (A) (A) (A) (A) (A) (A) (A) (A) (A)
                 (A) (A) (A) (A) (A) (A) (A) (A) (A) (A) (A) (A)
                 (A) (A) (A) (A) (A) (A) (A) (A) (A) (A) (A) (A)
                 (A) (A) (A) (A) (A) (A) (A) (A) (A) (A) (A) (A)
                 (A) (A) (A) (A) (A) (A) (A) (A) (A) (A) (A) (A)
                 (A) (A) (A) (A) (A) (A) (A) (A) (A) (A) (A) (A)
                 (A) (A) (A) (A) (A) (A) (A) (A)
 The electronic state is 1-A.
 Alpha  occ. eigenvalues --  -14.45364 -14.45220 -10.28060 -10.27486 -10.27254
 Alpha  occ. eigenvalues --  -10.25927 -10.23042 -10.21932 -10.15670  -1.02738
 Alpha  occ. eigenvalues --   -0.87887  -0.79922  -0.74889  -0.73307  -0.67228
 Alpha  occ. eigenvalues --   -0.65452  -0.57527  -0.52958  -0.50366  -0.48446
 Alpha  occ. eigenvalues --   -0.46857  -0.43857  -0.43203  -0.41749  -0.41361
 Alpha  occ. eigenvalues --   -0.40969  -0.39826  -0.38825  -0.38372  -0.36223
 Alpha  occ. eigenvalues --   -0.32515  -0.25622  -0.21510  -0.18758
 Alpha virt. eigenvalues --   -0.03112  -0.00747   0.00583   0.01533   0.02040
 Alpha virt. eigenvalues --    0.02478   0.03056   0.03775   0.04327   0.04437
 Alpha virt. eigenvalues --    0.05259   0.06144   0.06345   0.06716   0.07358
 Alpha virt. eigenvalues --    0.07466   0.07828   0.09228   0.09565   0.10196
 Alpha virt. eigenvalues --    0.11020   0.11664   0.11760   0.13449   0.13650
 Alpha virt. eigenvalues --    0.14691   0.15420   0.15730   0.16033   0.16854
 Alpha virt. eigenvalues --    0.17593   0.18619   0.19306   0.19585   0.19833
 Alpha virt. eigenvalues --    0.19998   0.20395   0.21029   0.21465   0.21953
 Alpha virt. eigenvalues --    0.23265   0.23377   0.23966   0.24721   0.25629
 Alpha virt. eigenvalues --    0.26216   0.27972   0.28332   0.30101   0.30546
 Alpha virt. eigenvalues --    0.31051   0.34349   0.34644   0.35333   0.36571
 Alpha virt. eigenvalues --    0.38733   0.40447   0.42526   0.42969   0.44171
 Alpha virt. eigenvalues --    0.44881   0.45364   0.46460   0.47168   0.48518
 Alpha virt. eigenvalues --    0.50140   0.50735   0.52876   0.55053   0.56239
 Alpha virt. eigenvalues --    0.57041   0.58596   0.58940   0.60207   0.60642
 Alpha virt. eigenvalues --    0.61374   0.62740   0.63215   0.64242   0.64832
 Alpha virt. eigenvalues --    0.65640   0.66645   0.67887   0.68248   0.69454
 Alpha virt. eigenvalues --    0.70693   0.73081   0.74039   0.74654   0.77632
 Alpha virt. eigenvalues --    0.80155   0.84270   0.85095   0.86038   0.88240
 Alpha virt. eigenvalues --    0.91829   0.93354   0.97048   1.00145   1.00365
 Alpha virt. eigenvalues --    1.02741   1.03281   1.04659   1.05369   1.08443
 Alpha virt. eigenvalues --    1.08508   1.11693   1.19032   1.24006   1.25091
 Alpha virt. eigenvalues --    1.28920   1.33960   1.35729   1.36471   1.38985
 Alpha virt. eigenvalues --    1.41150   1.41351   1.42127   1.43633   1.44070
 Alpha virt. eigenvalues --    1.44381   1.45021   1.47906   1.50517   1.51553
 Alpha virt. eigenvalues --    1.51798   1.52723   1.54192   1.54884   1.56260
 Alpha virt. eigenvalues --    1.56476   1.58636   1.62706   1.63457   1.64197
 Alpha virt. eigenvalues --    1.65222   1.66948   1.67947   1.68618   1.72337
 Alpha virt. eigenvalues --    1.72988   1.74159   1.78740   1.81694   1.84826
 Alpha virt. eigenvalues --    1.86504   1.91412   1.91662   1.94638   1.96787
 Alpha virt. eigenvalues --    1.97972   2.00310   2.01325   2.03215   2.04649
 Alpha virt. eigenvalues --    2.07035   2.08215   2.09192   2.10865   2.16768
 Alpha virt. eigenvalues --    2.20152   2.22436   2.22878   2.24816   2.28335
 Alpha virt. eigenvalues --    2.32811   2.37538   2.39710   2.41690   2.42152
 Alpha virt. eigenvalues --    2.42418   2.44120   2.45215   2.45586   2.46225
 Alpha virt. eigenvalues --    2.47993   2.48782   2.50664   2.52771   2.53078
 Alpha virt. eigenvalues --    2.54790   2.55393   2.57778   2.58807   2.60653
 Alpha virt. eigenvalues --    2.61927   2.64890   2.65775   2.70442   2.71276
 Alpha virt. eigenvalues --    2.72024   2.74994   2.79521   2.81508   2.86762
 Alpha virt. eigenvalues --    2.90062   2.91065   2.96129   2.99130   3.00895
 Alpha virt. eigenvalues --    3.02624   3.09050   3.13897   3.16307   3.28531
 Alpha virt. eigenvalues --    3.33365   3.40632   3.55507   3.56820   3.66049
 Alpha virt. eigenvalues --    3.70947   3.71386   3.75174   3.76598   3.76935
 Alpha virt. eigenvalues --    3.77235   3.81589   3.83048   3.84631   3.93742
 Alpha virt. eigenvalues --    3.96669   4.06942   4.18751   4.32465   4.81230
 Alpha virt. eigenvalues --    4.99939   5.11096  23.53797  23.73689  23.75231
 Alpha virt. eigenvalues --   23.77870  23.80976  23.84532  23.98045  35.25518
 Alpha virt. eigenvalues --   35.27625
          Condensed to atoms (all electrons):
               1          2          3          4          5          6
     1  N    7.783763  -0.667509   0.848846   0.506321  -1.339557   0.020215
     2  N   -0.667509   7.981763  -1.611085   0.420080   0.892637   0.155317
     3  C    0.848846  -1.611085  11.359618  -4.736083   0.844604  -0.098563
     4  C    0.506321   0.420080  -4.736083  16.311649  -3.175962  -0.160499
     5  C   -1.339557   0.892637   0.844604  -3.175962   9.692341   0.110355
     6  C    0.020215   0.155317  -0.098563  -0.160499   0.110355   5.212406
     7  C    0.105745   0.076029   0.032519  -0.055392  -0.090353  -0.056600
     8  C    0.767856  -1.150490   0.182539  -0.855725  -1.288112  -0.099777
     9  C   -1.109610   0.911399  -1.665582  -0.816043  -0.314526   0.015009
    10  H   -0.015152  -0.023299   0.018484   0.013013   0.022243   0.394284
    11  H   -0.008533  -0.033269  -0.037294   0.009723   0.009074   0.427094
    12  H    0.025043  -0.067750  -0.003052   0.005445  -0.016909   0.420700
    13  H   -0.043682  -0.010083   0.011518   0.014999   0.037655   0.001104
    14  H   -0.022882  -0.012865   0.024803   0.005810  -0.033805  -0.005548
    15  H   -0.065721   0.027535  -0.030735   0.006439  -0.005976  -0.003536
    16  H   -0.002733   0.017408  -0.142084   0.051913   0.009182  -0.000550
    17  H    0.008688  -0.001678  -0.052360  -0.027426  -0.022877   0.003658
    18  H   -0.015120   0.017859   0.072901  -0.031643   0.059051   0.006540
    19  H   -0.011909   0.011051  -0.024352  -0.026228  -0.123686   0.000309
    20  H    0.012918  -0.004401   0.023241  -0.017550   0.002937  -0.000110
    21  H    0.011935  -0.002807   0.024089  -0.016931   0.010039  -0.000307
               7          8          9         10         11         12
     1  N    0.105745   0.767856  -1.109610  -0.015152  -0.008533   0.025043
     2  N    0.076029  -1.150490   0.911399  -0.023299  -0.033269  -0.067750
     3  C    0.032519   0.182539  -1.665582   0.018484  -0.037294  -0.003052
     4  C   -0.055392  -0.855725  -0.816043   0.013013   0.009723   0.005445
     5  C   -0.090353  -1.288112  -0.314526   0.022243   0.009074  -0.016909
     6  C   -0.056600  -0.099777   0.015009   0.394284   0.427094   0.420700
     7  C    5.183127  -0.006122  -0.084544   0.000635  -0.004914  -0.001236
     8  C   -0.006122   8.658116  -0.380920  -0.051300  -0.000501   0.004196
     9  C   -0.084544  -0.380920   9.475501   0.002270   0.003709  -0.003049
    10  H    0.000635  -0.051300   0.002270   0.477606  -0.018008  -0.017402
    11  H   -0.004914  -0.000501   0.003709  -0.018008   0.484862  -0.036804
    12  H   -0.001236   0.004196  -0.003049  -0.017402  -0.036804   0.489043
    13  H    0.394930   0.000847  -0.053603   0.000001  -0.000068  -0.000018
    14  H    0.428154   0.005563  -0.019155  -0.000042   0.000301   0.000521
    15  H    0.421258  -0.004790   0.023384   0.000000   0.000563   0.000046
    16  H    0.000181   0.443195   0.000453   0.000404   0.000002  -0.000011
    17  H   -0.000127   0.451748  -0.003959  -0.000757  -0.000137   0.000164
    18  H   -0.000491   0.242607   0.005055  -0.000947   0.000118  -0.000036
    19  H    0.005665  -0.002846   0.523345   0.000000  -0.000002   0.000002
    20  H    0.001276   0.000625   0.345781  -0.000001  -0.000011   0.000003
    21  H    0.002332   0.001834   0.333644   0.000000   0.000004  -0.000008
              13         14         15         16         17         18
     1  N   -0.043682  -0.022882  -0.065721  -0.002733   0.008688  -0.015120
     2  N   -0.010083  -0.012865   0.027535   0.017408  -0.001678   0.017859
     3  C    0.011518   0.024803  -0.030735  -0.142084  -0.052360   0.072901
     4  C    0.014999   0.005810   0.006439   0.051913  -0.027426  -0.031643
     5  C    0.037655  -0.033805  -0.005976   0.009182  -0.022877   0.059051
     6  C    0.001104  -0.005548  -0.003536  -0.000550   0.003658   0.006540
     7  C    0.394930   0.428154   0.421258   0.000181  -0.000127  -0.000491
     8  C    0.000847   0.005563  -0.004790   0.443195   0.451748   0.242607
     9  C   -0.053603  -0.019155   0.023384   0.000453  -0.003959   0.005055
    10  H    0.000001  -0.000042   0.000000   0.000404  -0.000757  -0.000947
    11  H   -0.000068   0.000301   0.000563   0.000002  -0.000137   0.000118
    12  H   -0.000018   0.000521   0.000046  -0.000011   0.000164  -0.000036
    13  H    0.492538  -0.017757  -0.017158  -0.000001   0.000000  -0.000001
    14  H   -0.017757   0.486374  -0.037225   0.000000   0.000013  -0.000032
    15  H   -0.017158  -0.037225   0.491447   0.000000  -0.000026   0.000013
    16  H   -0.000001   0.000000   0.000000   0.477316  -0.020201  -0.019755
    17  H    0.000000   0.000013  -0.000026  -0.020201   0.518864  -0.032211
    18  H   -0.000001  -0.000032   0.000013  -0.019755  -0.032211   0.511772
    19  H    0.010465  -0.000063  -0.000237   0.000005  -0.000001  -0.000001
    20  H    0.000103  -0.000077   0.000148  -0.000006   0.000004   0.000001
    21  H   -0.000021   0.000155  -0.000085  -0.000002   0.000001   0.000004
              19         20         21
     1  N   -0.011909   0.012918   0.011935
     2  N    0.011051  -0.004401  -0.002807
     3  C   -0.024352   0.023241   0.024089
     4  C   -0.026228  -0.017550  -0.016931
     5  C   -0.123686   0.002937   0.010039
     6  C    0.000309  -0.000110  -0.000307
     7  C    0.005665   0.001276   0.002332
     8  C   -0.002846   0.000625   0.001834
     9  C    0.523345   0.345781   0.333644
    10  H    0.000000  -0.000001   0.000000
    11  H   -0.000002  -0.000011   0.000004
    12  H    0.000002   0.000003  -0.000008
    13  H    0.010465   0.000103  -0.000021
    14  H   -0.000063  -0.000077   0.000155
    15  H   -0.000237   0.000148  -0.000085
    16  H    0.000005  -0.000006  -0.000002
    17  H   -0.000001   0.000004   0.000001
    18  H   -0.000001   0.000001   0.000004
    19  H    0.539972  -0.023074  -0.023225
    20  H   -0.023074   0.486870  -0.025854
    21  H   -0.023225  -0.025854   0.487551
 Mulliken charges:
               1
     1  N    0.211078
     2  N    0.074156
     3  C    0.958030
     4  C   -1.425910
     5  C    0.721646
     6  C   -0.341502
     7  C   -0.352073
     8  C   -0.918544
     9  C   -1.188559
    10  H    0.197970
    11  H    0.204092
    12  H    0.201113
    13  H    0.178233
    14  H    0.197758
    15  H    0.194656
    16  H    0.185285
    17  H    0.178618
    18  H    0.184318
    19  H    0.144808
    20  H    0.197177
    21  H    0.197651
 Sum of Mulliken charges =   0.00000
 Mulliken charges with hydrogens summed into heavy atoms:
               1
     1  N    0.211078
     2  N    0.074156
     3  C    0.958030
     4  C   -1.425910
     5  C    0.721646
     6  C    0.261673
     7  C    0.218574
     8  C   -0.370323
     9  C   -0.648923
 Electronic spatial extent (au):  <R**2>=           1311.2590
 Charge=              0.0000 electrons
 Dipole moment (field-independent basis, Debye):
    X=              0.1377    Y=              9.7665    Z=              0.1611  Tot=              9.7688
 Quadrupole moment (field-independent basis, Debye-Ang):
   XX=            -41.4176   YY=            -64.0031   ZZ=            -57.2621
   XY=              0.6739   XZ=             -0.2644   YZ=             -0.3825
 Traceless Quadrupole moment (field-independent basis, Debye-Ang):
   XX=             12.8100   YY=             -9.7755   ZZ=             -3.0345
   XY=              0.6739   XZ=             -0.2644   YZ=             -0.3825
 Octapole moment (field-independent basis, Debye-Ang**2):
  XXX=             -2.0316  YYY=             75.8866  ZZZ=              0.4724  XYY=              1.4414
  XXY=             11.9106  XXZ=             -0.2023  XZZ=              0.4689  YZZ=             11.4768
  YYZ=              1.0420  XYZ=             -1.0484
 Hexadecapole moment (field-independent basis, Debye-Ang**3):
 XXXX=           -968.4168 YYYY=           -780.4140 ZZZZ=            -94.1779 XXXY=             11.6714
 XXXZ=             -3.3020 YYYX=             -4.4029 YYYZ=             -3.4847 ZZZX=              0.3931
 ZZZY=             -0.6678 XXYY=           -257.9866 XXZZ=           -183.3631 YYZZ=           -129.6477
 XXYZ=             -0.2188 YYXZ=             -0.5246 ZZXY=              5.1261
 N-N= 4.513515571064D+02 E-N=-1.791671000427D+03  KE= 3.799879408390D+02
 No NMR shielding tensors so no spin-rotation constants.
 Leave Link  601 at Tue Oct  5 00:19:30 2021, MaxMem=  6710886400 cpu:         2.0
 (Enter /usr/local/gqt/g09/l701.exe)
 Compute integral first derivatives.
 ... and contract with generalized density number  0.
 D1PCM: PCM CHGder 1st derivatives, ID1Alg=3 FixD1E=F DoIter=F DoCFld=F I1PDM=0.
 GePol: Maximum number of non-zero 1st derivatives   =     221
 Leave Link  701 at Tue Oct  5 00:19:31 2021, MaxMem=  6710886400 cpu:        13.6
 (Enter /usr/local/gqt/g09/l702.exe)
 L702 exits ... SP integral derivatives will be done elsewhere.
 Leave Link  702 at Tue Oct  5 00:19:31 2021, MaxMem=  6710886400 cpu:         0.3
 (Enter /usr/local/gqt/g09/l703.exe)
 Compute integral first derivatives, UseDBF=F ICtDFT=           0.
 Integral derivatives from FoFJK, PRISM(SPDF).
 Calling FoFJK, ICntrl=      2127 FMM=F ISym2X=0 I1Cent= 0 IOpClX= 0 NMat=1 NMatS=1 NMatT=0.
 FoFJK:  IHMeth= 1 ICntrl=    2127 DoSepK=T KAlg= 0 I1Cent=   0 FoldK=F
 IRaf=         1 NMat=   1 IRICut=       1 DoRegI=T DoRafI=F ISym2E= 0.
 FoFCou: FMM=F IPFlag=           0 FMFlag=      100000 FMFlg1=         800
         NFxFlg=           0 DoJE=F BraDBF=F KetDBF=F FulRan=T
         wScrn=  0.000000 ICntrl=    2527 IOpCl=  0 I1Cent=           0 NGrid=           0
         NMat0=    1 NMatS0=      1 NMatT0=    0 NMatD0=    1 NMtDS0=    0 NMtDT0=    0
 Symmetry not used in FoFCou.
 Leave Link  703 at Tue Oct  5 00:19:42 2021, MaxMem=  6710886400 cpu:       170.4
 (Enter /usr/local/gqt/g09/l716.exe)
 Dipole        = 5.41607875D-02 3.84242426D+00 6.33735632D-02
 ***** Axes restored to original set *****
 -------------------------------------------------------------------
 Center     Atomic                   Forces (Hartrees/Bohr)
 Number     Number              X              Y              Z
 -------------------------------------------------------------------
      1        7           0.008728623   -0.003096374    0.006329257
      2        7          -0.036083924   -0.055718486   -0.036847462
      3        6          -0.016211521    0.014013937    0.008616526
      4        6           0.026681037   -0.016803987   -0.007370988
      5        6           0.007621102    0.048100824    0.020760286
      6        6           0.010439923   -0.014473986   -0.006568793
      7        6          -0.001178326    0.019753077    0.010054469
      8        6           0.005743823    0.007881689    0.006036896
      9        6           0.016338833   -0.004466183   -0.001067664
     10        1           0.003159652   -0.018774166   -0.008061138
     11        1          -0.006248469    0.009364733   -0.011747569
     12        1          -0.010042238   -0.001179531    0.012812199
     13        1           0.002705819    0.020029499    0.009193729
     14        1          -0.009167159   -0.009477257    0.009650389
     15        1          -0.006701660    0.001219128   -0.014883705
     16        1           0.019863588   -0.000709212    0.002948288
     17        1          -0.004504412    0.003762023   -0.013517698
     18        1          -0.007595178   -0.005911793    0.010988152
     19        1          -0.019959032    0.002229569   -0.000994600
     20        1           0.009557711    0.007647289   -0.011359260
     21        1           0.006851809   -0.003390792    0.015028688
 -------------------------------------------------------------------
 Cartesian Forces:  Max     0.055718486 RMS     0.015602792
 Leave Link  716 at Tue Oct  5 00:19:42 2021, MaxMem=  6710886400 cpu:         0.4
 (Enter /usr/local/gqt/g09/l103.exe)

 GradGradGradGradGradGradGradGradGradGradGradGradGradGradGradGradGradGrad
 Berny optimization.
 FormGI is forming the generalized inverse of G from B-inverse, IUseBI=4.
 GSVD:  received Info=                   1 from GESDD.
 Internal  Forces:  Max     0.072635648 RMS     0.014014672
 Search for a local minimum.
 Step number   1 out of a maximum of  108
 All quantities printed in internal units (Hartrees-Bohrs-Radians)
 RMS Force = .14015D-01 SwitMx=.10000D-02 MixMth= 1
 Mixed Optimization -- RFO/linear search
 Second derivative matrix not updated -- first step.
 ITU=  0
     Eigenvalues ---    0.00369   0.00679   0.00766   0.00806   0.00806
     Eigenvalues ---    0.00965   0.01051   0.01324   0.01550   0.01975
     Eigenvalues ---    0.07315   0.07319   0.07535   0.07539   0.07557
     Eigenvalues ---    0.07557   0.07561   0.07561   0.16000   0.16000
     Eigenvalues ---    0.16000   0.16000   0.16000   0.16000   0.16000
     Eigenvalues ---    0.16000   0.16000   0.16000   0.16000   0.16000
     Eigenvalues ---    0.24951   0.24985   0.25000   0.25000   0.25000
     Eigenvalues ---    0.25000   0.32284   0.32284   0.32284   0.32284
     Eigenvalues ---    0.32284   0.32284   0.32284   0.32284   0.32284
     Eigenvalues ---    0.32285   0.32285   0.32285   0.32377   0.32694
     Eigenvalues ---    0.32694   0.33266   0.35740   0.39467   0.42067
     Eigenvalues ---    0.45622   0.49423
 RFO step:  Lambda=-5.47158721D-02 EMin= 3.68977396D-03
 Linear search not attempted -- first point.
 Maximum step size (   0.300) exceeded in Quadratic search.
    -- Step size scaled by   0.757
 Iteration  1 RMS(Cart)=  0.09140612 RMS(Int)=  0.00143352
 Iteration  2 RMS(Cart)=  0.00335414 RMS(Int)=  0.00033161
 Iteration  3 RMS(Cart)=  0.00000254 RMS(Int)=  0.00033161
 Iteration  4 RMS(Cart)=  0.00000000 RMS(Int)=  0.00033161
 ITry= 1 IFail=0 DXMaxC= 2.77D-01 DCOld= 1.00D+10 DXMaxT= 3.00D-01 DXLimC= 3.00D+00 Rises=F
 Variable       Old X    -DE/DX   Delta X   Delta X   Delta X     New X
                                 (Linear)    (Quad)   (Total)
    R1        2.80371  -0.07264   0.00000  -0.14122  -0.14108   2.66264
    R2        2.64374  -0.03697   0.00000  -0.05625  -0.05674   2.58700
    R3        2.83459  -0.03073   0.00000  -0.06144  -0.06144   2.77315
    R4        2.58943  -0.01790   0.00000  -0.02336  -0.02279   2.56665
    R5        2.77790  -0.02136   0.00000  -0.03922  -0.03922   2.73867
    R6        2.64263  -0.01144   0.00000  -0.01469  -0.01444   2.62819
    R7        2.82892   0.00105   0.00000   0.00209   0.00209   2.83101
    R8        2.70020  -0.01413   0.00000  -0.02205  -0.02252   2.67768
    R9        2.82892  -0.00537   0.00000  -0.01066  -0.01066   2.81827
   R10        2.10327  -0.02006   0.00000  -0.04021  -0.04021   2.06306
   R11        2.10326  -0.01617   0.00000  -0.03241  -0.03241   2.07085
   R12        2.10326  -0.01613   0.00000  -0.03232  -0.03232   2.07094
   R13        2.10327  -0.02207   0.00000  -0.04423  -0.04423   2.05903
   R14        2.10327  -0.01629   0.00000  -0.03264  -0.03264   2.07062
   R15        2.10327  -0.01628   0.00000  -0.03263  -0.03263   2.07064
   R16        2.10326  -0.02008   0.00000  -0.04026  -0.04026   2.06301
   R17        2.10327  -0.01324   0.00000  -0.02653  -0.02653   2.07673
   R18        2.10327  -0.01358   0.00000  -0.02722  -0.02722   2.07604
   R19        2.10327  -0.01775   0.00000  -0.03558  -0.03558   2.06769
   R20        2.10326  -0.01665   0.00000  -0.03338  -0.03338   2.06988
   R21        2.10327  -0.01679   0.00000  -0.03366  -0.03366   2.06961
    A1        1.90823  -0.01233   0.00000  -0.03620  -0.03656   1.87167
    A2        2.18748  -0.01949   0.00000  -0.04563  -0.04546   2.14202
    A3        2.18748   0.03183   0.00000   0.08183   0.08199   2.26947
    A4        1.74967   0.03438   0.00000   0.08333   0.08397   1.83364
    A5        2.26676  -0.03577   0.00000  -0.08780  -0.08814   2.17861
    A6        2.26676   0.00139   0.00000   0.00447   0.00411   2.27087
    A7        2.06809  -0.02882   0.00000  -0.06775  -0.06718   2.00091
    A8        2.10755  -0.00160   0.00000  -0.00589  -0.00619   2.10136
    A9        2.10755   0.03042   0.00000   0.07364   0.07333   2.18088
   A10        1.77552  -0.00697   0.00000  -0.00997  -0.01043   1.76509
   A11        1.91915   0.01401   0.00000   0.03351   0.03260   1.95174
   A12        2.18202  -0.01458   0.00000  -0.03557  -0.03511   2.14691
   A13        2.18202   0.00057   0.00000   0.00206   0.00251   2.18453
   A14        1.91113  -0.00935   0.00000  -0.03547  -0.03540   1.87573
   A15        1.91012   0.00362   0.00000   0.01392   0.01380   1.92392
   A16        1.91047   0.00483   0.00000   0.01836   0.01827   1.92874
   A17        1.91012   0.00139   0.00000   0.00219   0.00223   1.91235
   A18        1.91047   0.00100   0.00000   0.00119   0.00129   1.91176
   A19        1.91148  -0.00148   0.00000  -0.00021  -0.00048   1.91101
   A20        1.91114  -0.00489   0.00000  -0.01886  -0.01883   1.89230
   A21        1.91012   0.00225   0.00000   0.00863   0.00859   1.91871
   A22        1.91047   0.00308   0.00000   0.01179   0.01176   1.92223
   A23        1.91012   0.00035   0.00000  -0.00063  -0.00061   1.90951
   A24        1.91047   0.00017   0.00000  -0.00082  -0.00078   1.90969
   A25        1.91148  -0.00096   0.00000  -0.00013  -0.00024   1.91125
   A26        1.91114  -0.00376   0.00000  -0.01407  -0.01398   1.89715
   A27        1.91012   0.00867   0.00000   0.03110   0.03093   1.94105
   A28        1.91047   0.00656   0.00000   0.02338   0.02320   1.93367
   A29        1.91012  -0.00274   0.00000  -0.01020  -0.01011   1.90001
   A30        1.91047  -0.00199   0.00000  -0.00809  -0.00802   1.90245
   A31        1.91148  -0.00674   0.00000  -0.02214  -0.02255   1.88893
   A32        1.91113   0.01476   0.00000   0.05501   0.05480   1.96594
   A33        1.91012  -0.00171   0.00000  -0.00770  -0.00783   1.90229
   A34        1.91047  -0.00072   0.00000  -0.00383  -0.00402   1.90645
   A35        1.91012  -0.00508   0.00000  -0.01527  -0.01542   1.89470
   A36        1.91047  -0.00519   0.00000  -0.01492  -0.01518   1.89529
   A37        1.91148  -0.00206   0.00000  -0.01325  -0.01336   1.89812
    D1       -0.07536   0.00162   0.00000   0.02395   0.02442  -0.05094
    D2        3.06624   0.00088   0.00000   0.01311   0.01345   3.07968
    D3        3.06624   0.00107   0.00000   0.01714   0.01795   3.08419
    D4       -0.07536   0.00033   0.00000   0.00631   0.00698  -0.06837
    D5        0.04385  -0.00148   0.00000  -0.01354  -0.01315   0.03070
    D6       -3.09774  -0.00105   0.00000  -0.01080  -0.01076  -3.10850
    D7       -3.09774  -0.00093   0.00000  -0.00673  -0.00605  -3.10379
    D8        0.04385  -0.00050   0.00000  -0.00399  -0.00366   0.04019
    D9       -3.14159   0.00042   0.00000   0.00453   0.00462  -3.13697
   D10       -1.04783  -0.00077   0.00000  -0.00248  -0.00243  -1.05026
   D11        1.04719   0.00132   0.00000   0.00986   0.01002   1.05721
   D12        0.00000  -0.00022   0.00000  -0.00333  -0.00344  -0.00344
   D13        2.09376  -0.00140   0.00000  -0.01035  -0.01049   2.08327
   D14       -2.09440   0.00068   0.00000   0.00200   0.00196  -2.09244
   D15        0.08861  -0.00279   0.00000  -0.03179  -0.03186   0.05676
   D16       -3.05298  -0.00185   0.00000  -0.02282  -0.02363  -3.07661
   D17       -3.05298  -0.00205   0.00000  -0.02096  -0.02008  -3.07306
   D18        0.08861  -0.00111   0.00000  -0.01198  -0.01186   0.07675
   D19        3.14159   0.00053   0.00000   0.00709   0.00705  -3.13454
   D20       -1.04783  -0.00127   0.00000  -0.00339  -0.00354  -1.05137
   D21        1.04719   0.00208   0.00000   0.01611   0.01624   1.06343
   D22        0.00000  -0.00042   0.00000  -0.00680  -0.00680  -0.00680
   D23        2.09376  -0.00222   0.00000  -0.01728  -0.01739   2.07637
   D24       -2.09440   0.00113   0.00000   0.00222   0.00239  -2.09201
   D25       -0.06529   0.00374   0.00000   0.02882   0.02774  -0.03754
   D26        3.07631   0.00280   0.00000   0.01984   0.01909   3.09539
   D27        3.14159  -0.00064   0.00000  -0.00570  -0.00566   3.13593
   D28       -1.04783  -0.00099   0.00000  -0.00774  -0.00791  -1.05574
   D29        1.04719   0.00009   0.00000  -0.00150  -0.00127   1.04592
   D30        0.00000   0.00032   0.00000   0.00348   0.00346   0.00346
   D31        2.09376  -0.00003   0.00000   0.00144   0.00121   2.09497
   D32       -2.09440   0.00105   0.00000   0.00768   0.00785  -2.08656
   D33        0.00763  -0.00002   0.00000  -0.00465  -0.00530   0.00233
   D34       -3.13396  -0.00045   0.00000  -0.00739  -0.00775   3.14147
   D35        0.00000  -0.00002   0.00000   0.00015   0.00041   0.00041
   D36        2.09376   0.00174   0.00000   0.01038   0.01060   2.10436
   D37       -2.09440  -0.00227   0.00000  -0.01291  -0.01275  -2.10715
   D38        3.14159   0.00047   0.00000   0.00330   0.00313  -3.13847
   D39       -1.04783   0.00223   0.00000   0.01352   0.01332  -1.03451
   D40        1.04719  -0.00178   0.00000  -0.00977  -0.01004   1.03715
         Item               Value     Threshold  Converged?
 Maximum Force            0.072636     0.000450     NO 
 RMS     Force            0.014015     0.000300     NO 
 Maximum Displacement     0.276709     0.001800     NO 
 RMS     Displacement     0.091838     0.001200     NO 
 Predicted change in Energy=-2.837265D-02
 Lowest energy point so far.  Saving SCF results.
 GradGradGradGradGradGradGradGradGradGradGradGradGradGradGradGradGradGrad

 Leave Link  103 at Tue Oct  5 00:19:42 2021, MaxMem=  6710886400 cpu:         0.7
 (Enter /usr/local/gqt/g09/l202.exe)
                          Input orientation:                          
 ---------------------------------------------------------------------
 Center     Atomic      Atomic             Coordinates (Angstroms)
 Number     Number       Type             X           Y           Z
 ---------------------------------------------------------------------
      1          7           0       -7.142300   -0.637583   -0.201189
      2          7           0       -7.245487    0.655832    0.348114
      3          6           0       -8.565578    0.966567    0.273688
      4          6           0       -9.373921   -0.051235   -0.221205
      5          6           0       -8.410754   -1.049565   -0.510069
      6          6           0       -6.134080    1.422376    0.874887
      7          6           0       -5.857762   -1.325405   -0.375493
      8          6           0       -9.050831    2.319637    0.695654
      9          6           0       -8.712211   -2.395084   -1.078277
     10          1           0       -6.532311    2.374123    1.231888
     11          1           0       -5.664210    0.885850    1.706901
     12          1           0       -5.389778    1.607099    0.092024
     13          1           0       -6.047533   -2.301522   -0.820909
     14          1           0       -5.208870   -0.742532   -1.038678
     15          1           0       -5.365736   -1.457140    0.594658
     16          1           0      -10.132149    2.364084    0.552212
     17          1           0       -8.824644    2.511008    1.753921
     18          1           0       -8.577588    3.108426    0.095017
     19          1           0       -7.814190   -3.004709   -1.216603
     20          1           0       -9.391671   -2.923903   -0.401191
     21          1           0       -9.205365   -2.274624   -2.048704
 ---------------------------------------------------------------------
                    Distance matrix (angstroms):
                    1          2          3          4          5
     1  N    0.000000
     2  N    1.409008   0.000000
     3  C    2.196480   1.358211   0.000000
     4  C    2.307453   2.313936   1.390777   0.000000
     5  C    1.368982   2.236672   2.168647   1.416967   0.000000
     6  C    2.533353   1.449243   2.545856   3.724180   3.634809
     7  C    1.467487   2.524814   3.606499   3.743085   2.571374
     8  C    3.632075   2.479577   1.498107   2.562431   3.635242
     9  C    2.514501   3.673413   3.626294   2.581872   1.491362
    10  H    3.390600   2.059660   2.652081   4.008565   4.276049
    11  H    2.854191   2.097534   3.237059   4.284586   4.025455
    12  H    2.862849   2.100987   3.244840   4.326844   4.067760
    13  H    2.085968   3.398183   4.268384   4.060578   2.692366
    14  H    2.109634   2.833094   3.988836   4.300443   3.259717
    15  H    2.112161   2.838819   4.026955   4.325245   3.264762
    16  H    4.303117   3.360446   2.117728   2.647045   3.967951
    17  H    4.070180   2.812777   2.154879   3.281451   4.239650
    18  H    4.022484   2.802458   2.149332   3.273775   4.205098
    19  H    2.661914   4.021358   4.307735   3.485195   2.162792
    20  H    3.213554   4.240527   4.034061   2.878356   2.118301
    21  H    3.217057   4.263031   4.038335   2.882989   2.121220
                    6          7          8          9         10
     6  C    0.000000
     7  C    3.031517   0.000000
     8  C    3.056900   4.962799   0.000000
     9  C    5.003460   3.128258   5.048772   0.000000
    10  H    1.091724   4.089645   2.575550   5.730110   0.000000
    11  H    1.095849   3.043596   3.814127   5.273713   1.787231
    12  H    1.095894   3.006187   3.778279   5.331570   1.786896
    13  H    4.092753   1.089593   5.716194   2.678712   5.129390
    14  H    3.033904   1.095726   5.210130   3.873744   4.076826
    15  H    2.993408   1.095735   5.277705   3.857115   4.055309
    16  H    4.120132   5.722180   1.091696   5.227275   3.663454
    17  H    3.032649   5.296684   1.098960   5.666016   2.355005
    18  H    3.069478   5.222805   1.098595   5.628798   2.452516
    19  H    5.176502   2.712036   5.790913   1.094174   6.047326
    20  H    5.579464   3.878707   5.367863   1.095336   6.237946
    21  H    5.625654   3.860971   5.353748   1.095190   6.286362
                   11         12         13         14         15
    11  H    0.000000
    12  H    1.789788   0.000000
    13  H    4.086086   4.067359   0.000000
    14  H    3.224464   2.613806   1.783600   0.000000
    15  H    2.610704   3.105282   1.783720   1.789708   0.000000
    16  H    4.845716   4.824405   6.351175   6.034954   6.109193
    17  H    3.554109   3.921385   6.123932   5.608740   5.390189
    18  H    4.003222   3.523652   6.042155   5.240554   5.604465
    19  H    5.320314   5.372062   1.942195   3.454966   3.416220
    20  H    5.731687   6.065343   3.427358   4.760314   4.399006
    21  H    6.052516   5.848863   3.388231   4.397662   4.732694
                   16         17         18         19         20
    16  H    0.000000
    17  H    1.781926   0.000000
    18  H    1.783180   1.780423   0.000000
    19  H    6.109466   6.345720   6.298694   0.000000
    20  H    5.424029   5.874036   6.107205   1.777603   0.000000
    21  H    5.398269   6.124311   5.828111   1.777859   1.780610
                   21
    21  H    0.000000
 Stoichiometry    C7H12N2
 Framework group  C1[X(C7H12N2)]
 Deg. of freedom    57
 Full point group                 C1      NOp   1
 RotChk:  IX=0 Diff= 4.38D-02
 Largest Abelian subgroup         C1      NOp   1
 Largest concise Abelian subgroup C1      NOp   1
                         Standard orientation:                         
 ---------------------------------------------------------------------
 Center     Atomic      Atomic             Coordinates (Angstroms)
 Number     Number       Type             X           Y           Z
 ---------------------------------------------------------------------
      1          7           0       -0.691331    0.548918    0.014120
      2          7           0        0.717181    0.531489   -0.018934
      3          6           0        1.054413   -0.784030    0.001641
      4          6           0       -0.025478   -1.660021   -0.025441
      5          6           0       -1.113953   -0.752889   -0.014176
      6          6           0        1.558310    1.710203   -0.077564
      7          6           0       -1.468179    1.792359    0.076410
      8          6           0        2.493297   -1.196926    0.060406
      9          6           0       -2.554270   -1.139245   -0.033601
     10          1           0        2.596002    1.371658   -0.098610
     11          1           0        1.341517    2.285749   -0.984554
     12          1           0        1.396594    2.341494    0.803517
     13          1           0       -2.527038    1.536171    0.096425
     14          1           0       -1.210909    2.348467    0.984799
     15          1           0       -1.259824    2.411753   -0.803121
     16          1           0        2.544222   -2.287345    0.074350
     17          1           0        3.049279   -0.826406   -0.812125
     18          1           0        2.974839   -0.804721    0.966609
     19          1           0       -3.222850   -0.273157   -0.023155
     20          1           0       -2.754503   -1.723330   -0.938318
     21          1           0       -2.773115   -1.759878    0.841820
 ---------------------------------------------------------------------
 Rotational constants (GHZ):      2.4336627      1.5431406      0.9686215
 Leave Link  202 at Tue Oct  5 00:19:42 2021, MaxMem=  6710886400 cpu:         0.0
 (Enter /usr/local/gqt/g09/l301.exe)
 Standard basis: 6-311+G(d,p) (5D, 7F)
 Ernie: Thresh=  0.10000D-02 Tol=  0.10000D-05 Strict=F.
 There are   279 symmetry adapted cartesian basis functions of A   symmetry.
 There are   270 symmetry adapted basis functions of A   symmetry.
   270 basis functions,   420 primitive gaussians,   279 cartesian basis functions
    34 alpha electrons       34 beta electrons
       nuclear repulsion energy       459.2377265563 Hartrees.
 IExCor= 5547 DFT=T Ex+Corr=N12SX ExCW=0 ScaHFX=  0.250000
 ScaDFX=  1.000000  1.000000  1.000000  1.000000 ScalE2=  1.000000  1.000000
 IRadAn=      0 IRanWt=     -1 IRanGd=            0 ICorTp=0 IEmpDi=  4
  HFx wShort=  0.110000 wLong=  0.000000 cFull=  0.000000 cShort=  1.000000 cLong=  0.000000
  DFx wShort=  0.110000 wLong=  0.000000 cFull=  0.000000 cShort=  1.000000 cLong=  0.000000
 NAtoms=   21 NActive=   21 NUniq=   21 SFac= 1.00D+00 NAtFMM=   60 NAOKFM=F Big=F
 Integral buffers will be    131072 words long.
 Raffenetti 2 integral format.
 Two-electron integral symmetry is turned on.
 ------------------------------------------------------------------------------
[...]
 5232,0.00054254,-0.00086543,-0.00036532,0.07906861,-0.29191483,-0.0651
 1719,-0.00041666,0.00017866,0.00025980,0.00105846,0.00045543,-0.000030
 07,-0.00026950,0.00008654,-0.00005913,-0.08558663,0.31624528,-0.002390
 16,-0.00028168,-0.00010519,0.00331980,-0.01201878,-0.00567030,0.000386
 64,-0.00028688,0.00068959,0.00007291,0.00026335,-0.00017902,0.00061366
 ,-0.00066481,0.00003356,0.01948591,-0.06280432,-0.06277711,-0.00025692
 ,0.00028403,-0.00026771,0.00018981,-0.00014156,0.00044349,-0.00020805,
 -0.00002100,0.00005770,-0.02004466,0.07300014,0.06453283,0.00069246,0.
 00280447,0.00119473,-0.02468239,0.00765304,-0.02441556,0.00411467,-0.0
 0128069,-0.00292183,-0.00095045,-0.00240131,0.00043148,-0.00200345,0.0
 0023489,0.00003969,-0.08708074,0.04627372,-0.08188447,0.00003658,-0.00
 004496,-0.00001056,-0.00000782,-0.00000809,-0.00003815,0.00022757,-0.0
 0009632,-0.00005965,-0.00350469,0.00395409,-0.00747234,0.10274360,0.00
 146558,0.00223387,-0.00023529,-0.01493505,0.00844611,-0.01909740,0.001
 99812,-0.00068083,-0.00105278,-0.00029709,-0.00147852,0.00010753,-0.00
 226823,-0.00008856,0.00012068,0.04994597,-0.10565800,0.10114742,-0.000
 49054,-0.00019256,-0.00045422,0.00033737,0.00016879,-0.00019929,0.0001
 4776,-0.00003391,0.00036276,0.00999595,-0.01056662,0.02451528,-0.04695
 937,0.10936244,-0.00019312,0.00160894,0.00027937,-0.01128108,-0.002494
 03,-0.00410192,0.00369761,-0.00027005,-0.00075336,-0.00014351,-0.00153
 904,-0.00051113,-0.00174164,0.00016373,-0.00024143,-0.08384882,0.09926
 864,-0.22483156,-0.00033510,0.00055158,-0.00033732,0.00002464,0.000255
 07,0.00014426,0.00015315,-0.00005712,0.00000739,0.00452714,-0.00355745
 ,0.00821968,0.09815382,-0.10470195,0.23949051,0.00088443,0.00263620,0.
 00084343,-0.03067081,-0.00365533,0.01473776,0.00354396,-0.00397361,0.0
 0141906,-0.00124245,-0.00116408,-0.00181890,-0.00161663,0.00033521,-0.
 00002561,-0.16686084,-0.01090887,0.13401648,0.00001947,-0.00001438,0.0
 0024758,-0.00004075,0.00000465,-0.00005558,0.00022139,-0.00012655,0.00
 004972,-0.00523639,-0.00077189,0.00605161,0.01018073,0.00091689,-0.009
 39037,0.19039757,0.00106819,0.00178208,0.00153952,-0.02013626,-0.00295
 645,0.01008190,0.00271431,-0.00186519,0.00051453,-0.00046370,-0.001178
 17,-0.00112213,-0.00234688,0.00001130,-0.00014565,-0.00770685,-0.04924
 761,0.01022405,-0.00076099,-0.00028138,0.00055569,0.00040699,-0.000080
 43,0.00025953,0.00021943,0.00016322,-0.00017759,0.01954136,0.00474612,
 -0.02205214,-0.00974644,-0.00063877,0.01154286,0.01675041,0.05076848,0
 .00113595,0.00014842,0.00082354,-0.01320943,-0.00014421,0.01463459,-0.
 00088173,-0.00139904,-0.00023709,-0.00038393,0.00007920,-0.00062382,-0
 .00047146,0.00021275,-0.00019024,0.13961612,0.01174946,-0.20551304,-0.
 00019627,-0.00087175,0.00019306,0.00012786,-0.00015209,0.00008822,0.00
 005992,0.00012800,-0.00013108,0.00288391,0.00126419,-0.00488921,0.0170
 2993,-0.00037975,-0.01743243,-0.14569260,-0.01050359,0.21383430,0.0041
 0354,0.03757886,0.01246841,-0.00735283,0.00132928,-0.00022943,0.000945
 96,0.00183332,0.00084220,0.00041879,-0.00045144,-0.00014011,0.00019165
 ,0.00038612,0.00010273,-0.00069963,-0.00092707,-0.00029572,-0.05882332
 ,-0.05796013,-0.01764899,-0.00050373,-0.00013559,0.00000434,-0.0007433
 2,0.00035695,-0.00034420,0.00030561,0.00006078,-0.00000839,0.00000807,
 0.00001181,0.00023058,0.00019275,0.00015289,-0.00027247,0.06800729,0.0
 0001797,-0.01676819,-0.00522247,0.00205199,0.00172581,0.00104115,-0.00
 030235,-0.00074736,-0.00037562,-0.00009504,0.00009634,0.00011661,-0.00
 127211,-0.00034869,-0.00063372,0.00028247,0.00013147,0.00030214,-0.044
 48992,-0.30471569,-0.07837189,0.00022253,0.00009920,-0.00000827,-0.001
 14710,0.00039230,-0.00026106,-0.00002148,-0.00000534,-0.00006136,-0.00
 002925,0.00002736,-0.00002627,0.00005879,0.00010978,-0.00002532,0.0480
 6082,0.32875379,-0.00036837,-0.00555888,-0.00389444,0.00107102,0.00019
 354,0.00031089,-0.00038340,-0.00039426,0.00007774,0.00001406,0.0001781
 5,-0.00021999,-0.00046154,-0.00026123,0.00063379,0.00015156,0.00014035
 ,-0.00027581,-0.01317380,-0.07811480,-0.06971516,0.00010631,-0.0000271
 3,0.00009740,-0.00040801,-0.00009415,0.00034183,0.00004507,-0.00005145
 ,0.00014062,0.00001361,0.00005446,0.00025134,-0.00010386,-0.00013738,-
 0.00010489,0.01420022,0.08682812,0.07090894,-0.03114200,-0.01047886,0.
 02095497,0.00127422,-0.00315331,-0.00100589,-0.00241316,-0.00047647,-0
 .00046285,-0.00114953,0.00267203,-0.00053622,0.00409600,0.00177365,0.0
 0392810,-0.00008601,-0.00004585,0.00009875,-0.10966681,-0.06327564,0.0
 9312720,0.00024420,0.00013132,0.00007180,0.00002693,-0.00005226,0.0000
 3433,0.00005884,0.00003605,-0.00005383,0.00009120,0.00013825,-0.000000
 29,0.00031270,0.00036463,0.00015792,-0.00210100,-0.00242723,0.00322160
 ,0.13074488,0.01463170,0.00897001,-0.01424394,-0.00148098,0.00182520,-
 0.00061249,0.00200616,0.00007571,0.00049854,0.00030248,-0.00121808,0.0
 0011870,-0.00136058,-0.00069085,-0.00104902,0.00057685,-0.00013929,-0.
 00034871,-0.06720265,-0.11591093,0.09837430,-0.00018777,-0.00003911,0.
 00033719,-0.00030666,0.00013772,-0.00025681,-0.00002170,0.00002854,0.0
 0004843,-0.00014804,0.00004599,0.00006455,0.00004573,-0.00108571,-0.00
 031738,-0.01362200,-0.01193861,0.02282989,0.06639807,0.11959138,0.0065
 3454,-0.00333843,0.00182679,0.00021710,0.00107270,0.00010564,0.0013303
 1,0.00024140,0.00000227,0.00016867,-0.00105364,-0.00057138,-0.00276263
 ,-0.00028283,-0.00071675,0.00033339,0.00058205,-0.00026270,0.09522292,
 0.09739130,-0.19196177,-0.00010416,-0.00004788,-0.00000505,-0.00007176
 ,0.00024720,0.00014192,-0.00026275,-0.00004346,0.00019844,0.00001394,0
 .00009223,-0.00001939,-0.00024878,-0.00074466,-0.00009255,-0.00620823,
 -0.00463412,0.00818585,-0.10777915,-0.10372890,0.20123028,-0.03059357,
 0.00085170,-0.02405814,0.00160505,-0.00264013,-0.00085659,-0.00181918,
 -0.00053809,-0.00027243,-0.00178339,0.00108693,0.00170496,0.00333648,0
 .00463701,-0.00074694,-0.00004337,0.00019331,-0.00034131,-0.11936015,0
 .00104271,-0.11831800,0.00023630,0.00010728,0.00003711,0.00001478,0.00
 003286,0.00001838,0.00013086,-0.00005019,0.00016001,0.00028983,0.00014
 322,0.00039241,0.00007818,0.00006048,0.00009972,-0.00220960,-0.0001438
 0,-0.00347769,0.00993179,0.00026200,0.01338699,0.14035832,0.01544508,-
 0.00109597,0.01160813,-0.00135947,0.00142342,0.00122983,0.00216486,0.0
 0017777,0.00026464,0.00061007,-0.00102148,-0.00085687,-0.00226711,-0.0
 0170011,-0.00005096,0.00067207,-0.00021298,0.00066288,-0.00188327,-0.0
 4851591,-0.00122987,-0.00017606,0.00015607,-0.00021524,-0.00044194,-0.
 00011841,0.00018218,-0.00011983,0.00009289,-0.00015151,-0.00009676,-0.
 00110073,-0.00076215,-0.00002602,-0.00045193,0.00008054,-0.01580908,0.
 00311871,-0.02578855,0.00831376,0.00017451,0.01425508,-0.00509159,0.04
 885379,0.00484647,0.00112018,0.01269849,-0.00101062,-0.00044639,0.0004
 5895,0.00016253,0.00016184,-0.00015179,0.00016400,0.00031597,-0.000239
 88,0.00166049,-0.00048274,-0.00020132,0.00023971,-0.00083539,0.0001778
 9,-0.12406875,0.00034421,-0.25377906,-0.00000405,0.00014658,-0.0001381
 0,-0.00013055,-0.00016116,0.00006981,0.00031733,-0.00000799,-0.0000253
 3,-0.00005502,-0.00032193,-0.00005218,-0.00001189,0.00008529,-0.000431
 44,-0.00261153,0.00104749,-0.00628821,-0.01175124,-0.00178227,-0.01799
 582,0.13230684,0.00067406,0.26583143,-0.00035237,-0.00021175,-0.000154
 21,-0.00005018,0.00119630,0.00034742,-0.01012357,-0.00015487,-0.000722
 80,0.00087416,-0.00189194,-0.00070093,0.00074537,-0.00015291,0.0000414
 3,0.00041947,-0.00004383,0.00008868,0.00029975,0.00012370,0.00002633,-
 0.32899817,0.01853382,-0.01736878,-0.00000469,0.00004818,0.00002268,0.
 00015398,0.00020265,0.00006940,-0.00006160,0.00005101,0.00001293,-0.00
 005807,0.00006132,-0.00000017,-0.00006366,0.00002252,0.00001759,-0.000
 01995,-0.00000564,-0.00000777,-0.00001211,-0.00001507,0.00000934,0.353
 72628,0.00182451,-0.00033314,-0.00027132,0.00070009,-0.00546085,-0.002
 45314,0.03249254,-0.00230402,0.00263648,-0.00043221,0.00255413,0.00092
 440,0.00005485,0.00035583,0.00029402,-0.00084178,-0.00055484,-0.000326
 38,-0.00038686,-0.00043602,-0.00024147,0.01303421,-0.04567777,0.001167
 95,-0.00012406,0.00000371,0.00001452,0.00007995,0.00014089,0.00013287,
 0.00006049,0.00009896,0.00006315,0.00006575,0.00012022,0.00004312,0.00
 016827,-0.00008253,-0.00003681,0.00002329,0.00001493,-0.00001249,-0.00
 001004,0.00002067,0.00002378,-0.01934546,0.05059229,0.00069335,-0.0003
 5438,0.00040913,0.00029879,-0.00247406,-0.00022324,0.01286685,-0.00022
 396,-0.00083078,-0.00012321,0.00082043,0.00020249,0.00011584,0.0002773
 3,-0.00021798,-0.00027295,-0.00034769,0.00000970,-0.00014162,-0.000232
 33,0.00005318,-0.01964023,0.00165976,-0.04658131,-0.00004795,0.0000347
 4,-0.00006348,-0.00005909,0.00019224,-0.00022833,0.00004032,0.00000492
 ,-0.00001184,0.00003797,0.00006934,0.00001708,0.00006621,-0.00003493,-
 0.00001533,-0.00001497,0.00001193,-0.00000320,0.00000892,0.00000598,0.
 00000882,0.01924211,0.00069720,0.04715748,0.00008833,0.00181013,0.0001
 3504,0.00022394,-0.00079178,0.00019049,0.00139551,-0.00020324,0.010763
 27,0.00016554,-0.00029094,-0.00042761,-0.00013301,-0.00014081,0.000028
 01,0.00037253,0.00017163,0.00022221,0.00024416,-0.00000762,-0.00041343
 ,-0.06490811,-0.00635576,-0.06848602,0.00003582,-0.00002430,0.00002819
 ,-0.00107513,-0.00000516,0.00054461,-0.00008552,0.00006725,-0.00005949
 ,0.00003808,-0.00026720,-0.00005521,-0.00001538,0.00000376,-0.00000115
 ,-0.00001734,-0.00009084,0.00004161,-0.00008375,0.00007656,0.00002964,
 -0.00615439,-0.00354299,-0.03105346,0.06674797,0.00046152,-0.00214303,
 -0.00009745,-0.00204231,0.00204489,0.00036278,-0.00870871,-0.00488881,
 -0.02973616,0.00192488,-0.00223493,-0.00092377,-0.00044910,-0.00100367
 ,0.00137814,0.00019847,0.00008804,-0.00020769,-0.00024660,0.00023987,0
 .00020968,-0.00734420,-0.04764693,-0.03213414,0.00021164,0.00002366,-0
 .00015344,0.00016321,0.00008793,-0.00004699,0.00007666,-0.00005208,0.0
 0001974,0.00004141,0.00011150,0.00005650,0.00002003,-0.00002568,0.0000
 0664,0.00012977,-0.00000612,-0.00005102,0.00010420,-0.00008632,-0.0000
 1830,0.00031449,-0.00103635,0.00202872,0.00768621,0.05372793,0.0006700
 7,-0.00114905,-0.00048692,-0.00169200,0.00011636,0.00096135,-0.0016313
 9,-0.00248077,-0.00787649,0.00107603,-0.00056567,-0.00073236,-0.000187
 09,-0.00018939,0.00058574,0.00001103,-0.00049697,-0.00007463,-0.000114
 91,0.00019131,-0.00003322,-0.06902211,-0.03074831,-0.29136981,0.000112
 15,0.00000119,0.00001036,0.00034538,0.00037541,-0.00012346,0.00002020,
 0.00017633,-0.00004767,0.00000427,0.00019386,0.00006353,0.00002748,-0.
 00002069,0.00000437,0.00009452,-0.00008935,-0.00002073,0.00006892,-0.0
 0004285,0.00003564,0.00019222,0.00050409,-0.00043069,0.07512736,0.0363
 0372,0.31591825,0.00002107,0.00134413,0.00095906,0.00009261,-0.0006008
 6,-0.00065819,0.00325107,0.00752249,-0.00783221,0.00015256,-0.00042963
 ,0.00030200,0.00002500,-0.00009507,-0.00006687,0.00009988,0.00050354,0
 .00010604,0.00022906,-0.00030480,0.00039213,-0.08877915,-0.07805149,0.
 05855946,0.00003735,0.00001133,-0.00004708,-0.00095733,0.00032429,-0.0
 0044542,0.00008619,-0.00030355,-0.00015021,-0.00007021,0.00007494,0.00
 001955,0.00001342,-0.00000746,-0.00000091,-0.00011069,0.00008190,0.000
 01250,-0.00000915,-0.00006786,-0.00010151,-0.01029185,-0.02379838,0.01
 799358,0.00317820,0.00744690,-0.00510987,0.09304879,0.00089976,-0.0021
 0121,-0.00083497,-0.00264705,0.00205863,-0.00016941,-0.01102256,-0.022
 11201,0.01412079,0.00205398,-0.00258424,-0.00041178,-0.00036428,0.0003
 6413,-0.00169488,0.00001627,-0.00035153,0.00011763,-0.00025095,0.00040
 936,-0.00008162,-0.07932552,-0.19465663,0.10850879,0.00023966,-0.00007
 975,0.00013244,0.00056933,0.00011128,0.00036393,0.00003695,0.00021163,
 0.00007174,0.00000656,0.00013555,0.00005782,0.00001129,-0.00001440,-0.
 00000989,0.00015994,-0.00008845,-0.00007880,0.00013359,-0.00007697,0.0
 0000522,0.00119864,0.00201282,-0.00212158,0.00190877,0.00295452,-0.001
 99368,0.08636294,0.21397190,-0.00012231,-0.00011367,-0.00047073,-0.000
 38979,0.00067444,0.00106041,-0.00664305,-0.01086736,0.00764222,0.00063
 664,-0.00109404,-0.00062451,-0.00002840,-0.00009825,-0.00086756,0.0002
 4568,0.00021682,0.00014004,-0.00005125,0.00008994,-0.00007596,0.058275
 58,0.10760238,-0.12052532,0.00007132,-0.00007419,0.00009432,-0.0004239
 6,-0.00010865,-0.00001908,0.00002655,-0.00001577,-0.00001497,0.0000657
 8,-0.00017146,-0.00007767,-0.00002115,0.00000252,-0.00000373,0.0000200
 4,-0.00004053,0.00001526,0.00001778,0.00003377,0.00003667,-0.00114084,
 -0.00314006,0.00073778,0.01339442,0.02305042,-0.01635390,-0.06393056,-
 0.11589969,0.12933153,-0.00032809,0.00025057,0.00041115,0.00032230,-0.
 00108508,-0.00073918,-0.00009279,0.00007219,0.00037013,0.00039239,0.00
 089652,-0.00006207,0.00031468,-0.00328432,0.00508773,0.00023203,0.0002
 6393,-0.00032273,0.00021367,-0.00048476,-0.00010555,0.00006600,0.00001
 628,0.00002938,-0.07988820,0.06657984,-0.06010928,0.00000873,0.0000089
 7,0.00000423,-0.00008068,-0.00007244,-0.00002382,-0.00001665,0.0000666
 1,0.00009111,-0.00099227,-0.00039405,0.00022243,0.00003873,0.00028664,
 0.00015531,-0.00004785,-0.00005836,-0.00001935,-0.00000719,-0.00000664
 ,-0.00000466,-0.00000003,0.00002236,0.00001256,-0.00001397,0.00001919,
 0.00000211,0.08353905,0.00241712,0.00233020,0.00035380,-0.00050568,-0.
 00227903,-0.00104768,0.00063022,0.00041933,-0.00158161,-0.00167218,-0.
 00269119,-0.00077645,0.01029492,-0.02163361,0.01672955,0.00024648,0.00
 045817,-0.00006757,0.00001140,-0.00039659,0.00010844,-0.00024710,-0.00
 010191,0.00009063,0.06766948,-0.18121013,0.11682399,-0.00000704,-0.000
 01455,-0.00001146,-0.00014209,-0.00010945,-0.00010858,-0.00012719,-0.0
 0008282,-0.00001016,-0.00072327,0.00001737,0.00027366,-0.00006561,0.00
 023362,0.00007612,-0.00003409,0.00012749,0.00005183,0.00002855,0.00000
 403,0.00001555,-0.00001175,-0.00004963,-0.00004852,-0.00000086,-0.0001
 1651,-0.00004827,-0.07458317,0.19914151,0.00008595,0.00077730,0.001208
 31,0.00027538,-0.00032505,-0.00059574,0.00018965,-0.00006971,-0.000804
 63,-0.00035502,-0.00101533,-0.00075353,0.00631768,-0.01126170,0.010091
 28,0.00010285,0.00015044,-0.00012850,-0.00024959,0.00010041,0.00007113
 ,-0.00007141,-0.00008038,0.00008819,-0.05973256,0.11572019,-0.14285724
 ,0.00002303,0.00000607,0.00000090,-0.00003547,-0.00005777,0.00000640,-
 0.00003201,0.00004397,0.00005017,0.00024143,-0.00014397,0.00010525,-0.
 00001553,0.00003822,0.00001023,-0.00004429,-0.00018922,-0.00009139,0.0
 0000834,-0.00000087,0.00000824,-0.00000488,0.00000566,-0.00000759,0.00
 000414,-0.00004630,-0.00002336,0.06510023,-0.12504239,0.15367990,0.000
 10225,-0.00020930,-0.00006070,-0.00009589,0.00029640,0.00008596,0.0007
 3841,0.00013397,0.00011383,0.00054190,0.00152398,0.00068565,-0.0046307
 7,-0.00002067,-0.00023779,0.00023321,-0.00001686,0.00002885,0.00027374
 ,0.00018332,-0.00000781,-0.00001714,-0.00005585,-0.00001565,-0.3208382
 5,-0.04386785,-0.03489027,-0.00003129,-0.00001115,-0.00001708,-0.00002
 172,-0.00000002,0.00000550,-0.00000953,0.00001084,-0.00001477,0.000173
 06,-0.00023208,-0.00000729,-0.00003795,-0.00006355,-0.00002389,-0.0000
 3385,-0.00008757,-0.00001408,-0.00001400,-0.00000646,-0.00000418,-0.00
 000303,-0.00002642,-0.00001498,-0.00000375,-0.00003173,-0.00001075,-0.
 00885028,-0.00177549,-0.00039669,0.34427798,0.00027415,-0.00554640,-0.
 00251460,-0.00172829,-0.00047337,-0.00059080,-0.00007329,0.00036333,0.
 00028531,0.00006694,0.00273550,0.00104088,-0.03275106,-0.00530095,-0.0
 0347070,0.00048765,-0.00040256,-0.00015913,0.00096608,-0.00046062,-0.0
 0016192,0.00011778,0.00001012,0.00003518,-0.03835420,-0.05090666,-0.00
 448432,-0.00015455,-0.00009908,-0.00006845,-0.00002361,0.00001327,-0.0
 0001608,0.00000247,0.00002227,0.00002375,-0.00009905,0.00011256,0.0001
 1199,-0.00008396,0.00008672,0.00004782,-0.00008709,0.00010638,0.000028
 13,0.00001295,-0.00004122,-0.00002055,0.00000734,0.00000645,0.00000313
 ,0.00000598,0.00000191,-0.00000054,0.02280692,0.00400769,0.00125065,0.
 04593975,0.05659514,-0.00000488,-0.00261674,-0.00029061,-0.00076663,-0
 .00037724,0.00029350,0.00003828,0.00030061,-0.00021859,0.00010885,0.00
 115421,0.00036085,-0.01377931,-0.00145071,-0.00332509,0.00020082,-0.00
 022916,0.00008618,0.00036354,-0.00029706,0.00006119,0.00005431,0.00002
 987,-0.00005744,-0.03262768,-0.00481826,-0.04951414,-0.00006702,-0.000
 04431,-0.00003116,0.00001010,0.00001367,0.00000036,-0.00001302,0.00000
 726,0.00000451,0.00011572,0.00016045,-0.00021936,-0.00004647,-0.000009
 78,-0.00002346,-0.00005472,0.00005149,0.00000713,0.00000303,-0.0000220
 1,0.00000264,0.00000195,-0.00001357,-0.00000277,0.00000099,0.00001019,
 0.00000696,-0.01934165,-0.00411847,-0.00269976,0.03718369,0.00766749,0
 .05059430,-0.00025187,0.00054463,-0.00044696,0.00037634,-0.00133478,0.
 00002456,-0.00017520,0.00024676,-0.00029528,0.00035246,0.00063097,0.00
 072122,0.00134812,0.00117451,-0.00622429,0.00012379,-0.00003499,0.0004
 2144,0.00041494,-0.00004728,-0.00011220,0.00007432,0.00002822,-0.00000
 167,-0.09975207,0.00818224,0.10736945,-0.00000804,0.00000179,-0.000001
 76,0.00000816,0.00010710,-0.00003034,-0.00004694,-0.00006409,-0.000043
 95,-0.00085540,-0.00015899,-0.00067744,-0.00007505,-0.00010111,0.00005
 185,0.00001437,0.00021758,0.00004226,-0.00000719,-0.00000904,-0.000001
 62,-0.00001439,0.00001559,0.00001016,0.00000089,0.00002523,0.00000615,
 0.00519043,-0.00140267,-0.01141122,-0.01175308,0.00266709,0.02862010,0
 .10503541,0.00174032,0.00228139,0.00068898,-0.00020748,-0.00231567,-0.
 00016702,0.00026249,-0.00095569,0.00142889,-0.00149339,-0.00235216,-0.
 00119328,0.01469656,-0.00375939,-0.02832114,0.00019367,0.00025902,0.00
 028969,-0.00012648,0.00006234,-0.00025381,-0.00017615,0.00000790,-0.00
 019096,0.00941158,-0.04616490,-0.02244609,-0.00001929,-0.00002744,0.00
 000294,-0.00011737,-0.00000840,-0.00007726,-0.00009617,-0.00010209,-0.
 00004045,-0.00024279,0.00006179,-0.00014228,-0.00008157,-0.00006718,0.
 00001029,-0.00006030,0.00012910,0.00005160,0.00002733,0.00000827,-0.00
 000867,0.00000075,-0.00011123,-0.00004013,-0.00001846,-0.00005003,0.00
 000219,-0.01132123,0.00194601,0.02013979,-0.00168325,-0.00083046,0.004
 60206,-0.01068877,0.05198883,0.00146011,0.00038833,0.00120045,-0.00040
 134,-0.00149282,-0.00060029,0.00006502,-0.00014074,0.00057935,-0.00082
 877,-0.00056889,-0.00080501,0.00371738,-0.00210171,-0.00895269,0.00012
 758,0.00020057,0.00006878,0.00012718,-0.00051402,-0.00009448,-0.000101
 34,-0.00000388,-0.00001273,0.10778249,-0.02123098,-0.25803542,-0.00002
 788,-0.00002337,-0.00000092,-0.00008132,-0.00007914,-0.00004411,-0.000
 08104,-0.00006321,0.00001448,-0.00051910,0.00032122,-0.00032109,-0.000
 04280,0.00015744,-0.00004387,-0.00003192,0.00023864,0.00006969,0.00001
 401,0.00000298,-0.00000034,-0.00000555,-0.00003946,-0.00001900,-0.0000
 0660,-0.00004597,-0.00000839,0.00924192,-0.00166242,-0.01735824,-0.002
 38756,0.00099276,0.00496477,-0.11802047,0.02566464,0.27939907\\0.00000
 419,0.00000570,0.00001616,-0.00000613,0.00000254,-0.00000788,0.0000071
 4,0.00000331,0.00000459,0.00000610,0.,-0.00000315,-0.00001541,-0.00000
 804,0.00000186,0.00000028,0.00001103,0.00000144,-0.00000013,-0.0000105
 5,-0.00000449,-0.00000172,0.00000182,-0.00000610,0.00000272,-0.0000080
 2,-0.00000271,-0.00000024,-0.00000104,0.00000077,0.00000213,-0.0000021
 6,-0.00000128,0.00000043,0.00000121,-0.00000141,-0.00000136,-0.0000015
 5,0.00000088,0.00000215,0.00000067,0.00000051,-0.00000253,0.00000098,-
 0.00000261,0.00000028,0.00000134,-0.00000226,-0.00000160,-0.00000084,0
 .00000206,0.00000175,0.00000107,0.00000069,0.00000425,0.00000373,0.000
 00454,-0.00000127,0.00000061,-0.00000123,-0.00000102,-0.00000181,-0.00
 000038\\\@


 NEVER LOSE YOUR IGNORANCE, IT CAN'T BE REPLACED.
   -- ANDY CAPP
 Job cpu time:       0 days  1 hours 22 minutes 48.6 seconds.
 File lengths (MBytes):  RWF=    188 Int=      0 D2E=      0 Chk=     12 Scr=      1
 Normal termination of Gaussian 09 at Tue Oct  5 00:44:59 2021.
