 Entering Gaussian System, Link 0=g09
 Input=NHC21.gjf
 Output=NHC21.log
 Initial command:
 /usr/local/gqt/g09/l1.exe "/usr/local/gqt/lixogaussian/Gau-29734.inp" -scrdir="/usr/local/gqt/lixogaussian/"
 Entering Link 1 = /usr/local/gqt/g09/l1.exe PID=     29736.
  
 Copyright (c) 1988,1990,1992,1993,1995,1998,2003,2009,2013,
            Gaussian, Inc.  All Rights Reserved.
  
 This is part of the Gaussian(R) 09 program.  It is based on
 the Gaussian(R) 03 system (copyright 2003, Gaussian, Inc.),
 the Gaussian(R) 98 system (copyright 1998, Gaussian, Inc.),
 the Gaussian(R) 94 system (copyright 1995, Gaussian, Inc.),
 the Gaussian 92(TM) system (copyright 1992, Gaussian, Inc.),
 the Gaussian 90(TM) system (copyright 1990, Gaussian, Inc.),
 the Gaussian 88(TM) system (copyright 1988, Gaussian, Inc.),
 the Gaussian 86(TM) system (copyright 1986, Carnegie Mellon
 University), and the Gaussian 82(TM) system (copyright 1983,
 Carnegie Mellon University). Gaussian is a federally registered
 trademark of Gaussian, Inc.
  
 This software contains proprietary and confidential information,
 including trade secrets, belonging to Gaussian, Inc.
  
 This software is provided under written license and may be
 used, copied, transmitted, or stored only in accord with that
 written license.
  
 The following legend is applicable only to US Government
 contracts under FAR:
  
                    RESTRICTED RIGHTS LEGEND
  
 Use, reproduction and disclosure by the US Government is
 subject to restrictions as set forth in subparagraphs (a)
 and (c) of the Commercial Computer Software - Restricted
 Rights clause in FAR 52.227-19.
  
 Gaussian, Inc.
 340 Quinnipiac St., Bldg. 40, Wallingford CT 06492
  
  
 ---------------------------------------------------------------
 Warning -- This program may not be used in any manner that
 competes with the business of Gaussian, Inc. or will provide
 assistance to any competitor of Gaussian, Inc.  The licensee
 of this program is prohibited from giving any competitor of
 Gaussian, Inc. access to this program.  By using this program,
 the user acknowledges that Gaussian, Inc. is engaged in the
 business of creating and licensing software in the field of
 computational chemistry and represents and warrants to the
 licensee that it is not a competitor of Gaussian, Inc. and that
 it will not use this program in any manner prohibited above.
 ---------------------------------------------------------------
  

 Cite this work as:
 Gaussian 09, Revision D.01,
 M. J. Frisch, G. W. Trucks, H. B. Schlegel, G. E. Scuseria, 
 M. A. Robb, J. R. Cheeseman, G. Scalmani, V. Barone, B. Mennucci, 
 G. A. Petersson, H. Nakatsuji, M. Caricato, X. Li, H. P. Hratchian, 
 A. F. Izmaylov, J. Bloino, G. Zheng, J. L. Sonnenberg, M. Hada, 
 M. Ehara, K. Toyota, R. Fukuda, J. Hasegawa, M. Ishida, T. Nakajima, 
 Y. Honda, O. Kitao, H. Nakai, T. Vreven, J. A. Montgomery, Jr., 
 J. E. Peralta, F. Ogliaro, M. Bearpark, J. J. Heyd, E. Brothers, 
 K. N. Kudin, V. N. Staroverov, T. Keith, R. Kobayashi, J. Normand, 
 K. Raghavachari, A. Rendell, J. C. Burant, S. S. Iyengar, J. Tomasi, 
 M. Cossi, N. Rega, J. M. Millam, M. Klene, J. E. Knox, J. B. Cross, 
 V. Bakken, C. Adamo, J. Jaramillo, R. Gomperts, R. E. Stratmann, 
 O. Yazyev, A. J. Austin, R. Cammi, C. Pomelli, J. W. Ochterski, 
 R. L. Martin, K. Morokuma, V. G. Zakrzewski, G. A. Voth, 
 P. Salvador, J. J. Dannenberg, S. Dapprich, A. D. Daniels, 
 O. Farkas, J. B. Foresman, J. V. Ortiz, J. Cioslowski, 
 and D. J. Fox, Gaussian, Inc., Wallingford CT, 2013.
 
 ******************************************
 Gaussian 09:  ES64L-G09RevD.01 24-Apr-2013
                 9-Jun-2021 
 ******************************************
 %nprocshared=16
 Will use up to   16 processors via shared memory.
 %mem=25GB
 %chk=NHC21.chk
 ----------------------------------------------------------
 #p opt freq n12sx/6-311+g(d,p) scrf=(iefpcm,solvent=water)
 ----------------------------------------------------------
 1/14=-1,18=20,19=15,26=3,38=1/1,3;
 2/9=110,12=2,17=6,18=5,40=1/2;
 3/5=4,6=6,7=111,11=2,16=1,25=1,30=1,70=2201,71=1,72=1,74=-69/1,2,3;
 4//1;
 5/5=2,38=5,53=1/2;
 6/7=2,8=2,9=2,10=2,28=1/1;
 7//1,2,3,16;
 1/14=-1,18=20,19=15,26=3/3(2);
 2/9=110/2;
 99//99;
 2/9=110/2;
 3/5=4,6=6,7=111,11=2,16=1,25=1,30=1,70=2205,71=1,72=1,74=-69/1,2,3;
 4/5=5,16=3,69=1/1;
 5/5=2,38=5,53=1/2;
 7//1,2,3,16;
 1/14=-1,18=20,19=15,26=3/3(-5);
 2/9=110/2;
 6/7=2,8=2,9=2,10=2,19=2,28=1/1;
 99/9=1/99;
 Leave Link    1 at Wed Jun  9 00:19:03 2021, MaxMem=  3355443200 cpu:         0.7
 (Enter /usr/local/gqt/g09/l101.exe)
 -----
 TITLE
 -----
 Symbolic Z-matrix:
 Charge =  0 Multiplicity = 1
 C                    0    -2.00618   1.24638  -1.23156 
 C                    0    -3.51616   1.14278  -1.40115 
 C                    0    -4.10495   0.75783  -0.06615 
 N                    0    -3.63209  -0.4272    0.4301 
 C                    0    -2.38707  -0.4159    1.17327 
 N                    0    -1.26835  -0.51187   0.25029 
 C                    0    -1.46479  -0.15113  -1.05563 
 O                    0    -4.92072   1.43489   0.51297 
 O                    0    -1.22603  -0.88595  -1.98423 
 C                    0    -4.35876  -1.66385   0.21767 
 C                    0     0.02743  -0.97949   0.70283 
 H                    0    -1.55551   1.71566  -2.13458 
 H                    0    -1.75634   1.8744   -0.34729 
 H                    0    -3.92828   2.1238   -1.72752 
 H                    0    -3.76956   0.38108  -2.17211 
 H                    0    -5.28028  -1.45683  -0.37115 
 H                    0    -3.71552  -2.38029  -0.34066 
 H                    0    -4.63813  -2.10346   1.20127 
 H                    0    -0.02269  -1.21981   1.78842 
 H                    0     0.311    -1.89306   0.13386 
 H                    0     0.78822  -0.18491   0.53366 
 
 NAtoms=     21 NQM=       21 NQMF=       0 NMMI=      0 NMMIF=      0
                NMic=       0 NMicF=      0.
                    Isotopes and Nuclear Properties:
 (Nuclear quadrupole moments (NQMom) in fm**2, nuclear magnetic moments (NMagM)
  in nuclear magnetons)

  Atom         1           2           3           4           5           6           7           8           9          10
 IAtWgt=          12          12          12          14          12          14          12          16          16          12
 AtmWgt=  12.0000000  12.0000000  12.0000000  14.0030740  12.0000000  14.0030740  12.0000000  15.9949146  15.9949146  12.0000000
 NucSpn=           0           0           0           2           0           2           0           0           0           0
 AtZEff=   0.0000000   0.0000000   0.0000000   0.0000000   0.0000000   0.0000000   0.0000000   0.0000000   0.0000000   0.0000000
 NQMom=    0.0000000   0.0000000   0.0000000   2.0440000   0.0000000   2.0440000   0.0000000   0.0000000   0.0000000   0.0000000
 NMagM=    0.0000000   0.0000000   0.0000000   0.4037610   0.0000000   0.4037610   0.0000000   0.0000000   0.0000000   0.0000000
 AtZNuc=   6.0000000   6.0000000   6.0000000   7.0000000   6.0000000   7.0000000   6.0000000   8.0000000   8.0000000   6.0000000

  Atom        11          12          13          14          15          16          17          18          19          20
 IAtWgt=          12           1           1           1           1           1           1           1           1           1
 AtmWgt=  12.0000000   1.0078250   1.0078250   1.0078250   1.0078250   1.0078250   1.0078250   1.0078250   1.0078250   1.0078250
 NucSpn=           0           1           1           1           1           1           1           1           1           1
 AtZEff=   0.0000000   0.0000000   0.0000000   0.0000000   0.0000000   0.0000000   0.0000000   0.0000000   0.0000000   0.0000000
 NQMom=    0.0000000   0.0000000   0.0000000   0.0000000   0.0000000   0.0000000   0.0000000   0.0000000   0.0000000   0.0000000
 NMagM=    0.0000000   2.7928460   2.7928460   2.7928460   2.7928460   2.7928460   2.7928460   2.7928460   2.7928460   2.7928460
 AtZNuc=   6.0000000   1.0000000   1.0000000   1.0000000   1.0000000   1.0000000   1.0000000   1.0000000   1.0000000   1.0000000

  Atom        21
 IAtWgt=           1
 AtmWgt=   1.0078250
 NucSpn=           1
 AtZEff=   0.0000000
 NQMom=    0.0000000
 NMagM=    2.7928460
 AtZNuc=   1.0000000
 Leave Link  101 at Wed Jun  9 00:19:03 2021, MaxMem=  3355443200 cpu:         6.8
 (Enter /usr/local/gqt/g09/l103.exe)

 GradGradGradGradGradGradGradGradGradGradGradGradGradGradGradGradGradGrad
 Berny optimization.
 Initialization pass.
                           ----------------------------
                           !    Initial Parameters    !
                           ! (Angstroms and Degrees)  !
 --------------------------                            --------------------------
 ! Name  Definition              Value          Derivative Info.                !
 --------------------------------------------------------------------------------
 ! R1    R(1,2)                  1.523          estimate D2E/DX2                !
 ! R2    R(1,7)                  1.509          estimate D2E/DX2                !
 ! R3    R(1,12)                 1.113          estimate D2E/DX2                !
 ! R4    R(1,13)                 1.113          estimate D2E/DX2                !
 ! R5    R(2,3)                  1.509          estimate D2E/DX2                !
 ! R6    R(2,14)                 1.113          estimate D2E/DX2                !
 ! R7    R(2,15)                 1.113          estimate D2E/DX2                !
 ! R8    R(3,4)                  1.369          estimate D2E/DX2                !
 ! R9    R(3,8)                  1.208          estimate D2E/DX2                !
 ! R10   R(4,5)                  1.45           estimate D2E/DX2                !
 ! R11   R(4,10)                 1.45           estimate D2E/DX2                !
 ! R12   R(5,6)                  1.4535         estimate D2E/DX2                !
 ! R13   R(6,7)                  1.369          estimate D2E/DX2                !
 ! R14   R(6,11)                 1.45           estimate D2E/DX2                !
 ! R15   R(7,9)                  1.208          estimate D2E/DX2                !
 ! R16   R(10,16)                1.113          estimate D2E/DX2                !
 ! R17   R(10,17)                1.113          estimate D2E/DX2                !
 ! R18   R(10,18)                1.113          estimate D2E/DX2                !
 ! R19   R(11,19)                1.113          estimate D2E/DX2                !
 ! R20   R(11,20)                1.113          estimate D2E/DX2                !
 ! R21   R(11,21)                1.113          estimate D2E/DX2                !
 ! A1    A(2,1,7)              107.8            estimate D2E/DX2                !
 ! A2    A(2,1,12)             109.8647         estimate D2E/DX2                !
 ! A3    A(2,1,13)             110.4509         estimate D2E/DX2                !
 ! A4    A(7,1,12)             109.8646         estimate D2E/DX2                !
 ! A5    A(7,1,13)             110.4509         estimate D2E/DX2                !
 ! A6    A(12,1,13)            108.4085         estimate D2E/DX2                !
 ! A7    A(1,2,3)              107.8            estimate D2E/DX2                !
 ! A8    A(1,2,14)             109.8647         estimate D2E/DX2                !
 ! A9    A(1,2,15)             110.4509         estimate D2E/DX2                !
 ! A10   A(3,2,14)             109.8647         estimate D2E/DX2                !
 ! A11   A(3,2,15)             110.4508         estimate D2E/DX2                !
 ! A12   A(14,2,15)            108.4085         estimate D2E/DX2                !
 ! A13   A(2,3,4)              114.0            estimate D2E/DX2                !
 ! A14   A(2,3,8)              123.0            estimate D2E/DX2                !
 ! A15   A(4,3,8)              123.0            estimate D2E/DX2                !
 ! A16   A(3,4,5)              118.4            estimate D2E/DX2                !
 ! A17   A(3,4,10)             120.8            estimate D2E/DX2                !
 ! A18   A(5,4,10)             120.8            estimate D2E/DX2                !
 ! A19   A(4,5,6)              109.5663         estimate D2E/DX2                !
 ! A20   A(5,6,7)              118.5493         estimate D2E/DX2                !
 ! A21   A(5,6,11)             120.7254         estimate D2E/DX2                !
 ! A22   A(7,6,11)             120.7254         estimate D2E/DX2                !
 ! A23   A(1,7,6)              114.0            estimate D2E/DX2                !
 ! A24   A(1,7,9)              123.0            estimate D2E/DX2                !
 ! A25   A(6,7,9)              123.0            estimate D2E/DX2                !
 ! A26   A(4,10,16)            109.5            estimate D2E/DX2                !
 ! A27   A(4,10,17)            109.4418         estimate D2E/DX2                !
 ! A28   A(4,10,18)            109.4618         estimate D2E/DX2                !
 ! A29   A(16,10,17)           109.4418         estimate D2E/DX2                !
 ! A30   A(16,10,18)           109.4618         estimate D2E/DX2                !
 ! A31   A(17,10,18)           109.52           estimate D2E/DX2                !
 ! A32   A(6,11,19)            109.5            estimate D2E/DX2                !
 ! A33   A(6,11,20)            109.4418         estimate D2E/DX2                !
 ! A34   A(6,11,21)            109.4619         estimate D2E/DX2                !
 ! A35   A(19,11,20)           109.4418         estimate D2E/DX2                !
 ! A36   A(19,11,21)           109.4618         estimate D2E/DX2                !
 ! A37   A(20,11,21)           109.5199         estimate D2E/DX2                !
 ! D1    D(7,1,2,3)             71.153          estimate D2E/DX2                !
 ! D2    D(7,1,2,14)          -169.1467         estimate D2E/DX2                !
 ! D3    D(7,1,2,15)           -49.603          estimate D2E/DX2                !
 ! D4    D(12,1,2,3)          -169.1468         estimate D2E/DX2                !
 ! D5    D(12,1,2,14)          -49.4465         estimate D2E/DX2                !
 ! D6    D(12,1,2,15)           70.0972         estimate D2E/DX2                !
 ! D7    D(13,1,2,3)           -49.6031         estimate D2E/DX2                !
 ! D8    D(13,1,2,14)           70.0972         estimate D2E/DX2                !
 ! D9    D(13,1,2,15)         -170.3591         estimate D2E/DX2                !
 ! D10   D(2,1,7,6)            -97.014          estimate D2E/DX2                !
 ! D11   D(2,1,7,9)             82.986          estimate D2E/DX2                !
 ! D12   D(12,1,7,6)           143.2857         estimate D2E/DX2                !
 ! D13   D(12,1,7,9)           -36.7143         estimate D2E/DX2                !
 ! D14   D(13,1,7,6)            23.7421         estimate D2E/DX2                !
 ! D15   D(13,1,7,9)          -156.2579         estimate D2E/DX2                !
 ! D16   D(1,2,3,4)            -58.9779         estimate D2E/DX2                !
 ! D17   D(1,2,3,8)            121.022          estimate D2E/DX2                !
 ! D18   D(14,2,3,4)          -178.6783         estimate D2E/DX2                !
 ! D19   D(14,2,3,8)             1.3217         estimate D2E/DX2                !
 ! D20   D(15,2,3,4)            61.7781         estimate D2E/DX2                !
 ! D21   D(15,2,3,8)          -118.2219         estimate D2E/DX2                !
 ! D22   D(2,3,4,5)             84.4987         estimate D2E/DX2                !
 ! D23   D(2,3,4,10)           -95.5014         estimate D2E/DX2                !
 ! D24   D(8,3,4,5)            -95.5013         estimate D2E/DX2                !
 ! D25   D(8,3,4,10)            84.4986         estimate D2E/DX2                !
 ! D26   D(3,4,5,6)            -85.4009         estimate D2E/DX2                !
 ! D27   D(10,4,5,6)            94.5992         estimate D2E/DX2                !
 ! D28   D(3,4,10,16)            0.0001         estimate D2E/DX2                !
 ! D29   D(3,4,10,17)          119.9637         estimate D2E/DX2                !
 ! D30   D(3,4,10,18)         -120.0003         estimate D2E/DX2                !
 ! D31   D(5,4,10,16)          180.0            estimate D2E/DX2                !
 ! D32   D(5,4,10,17)          -60.0364         estimate D2E/DX2                !
 ! D33   D(5,4,10,18)           59.9996         estimate D2E/DX2                !
 ! D34   D(4,5,6,7)             21.4953         estimate D2E/DX2                !
 ! D35   D(4,5,6,11)          -158.5048         estimate D2E/DX2                !
 ! D36   D(5,6,7,1)             55.2289         estimate D2E/DX2                !
 ! D37   D(5,6,7,9)           -124.7711         estimate D2E/DX2                !
 ! D38   D(11,6,7,1)          -124.771          estimate D2E/DX2                !
 ! D39   D(11,6,7,9)            55.229          estimate D2E/DX2                !
 ! D40   D(5,6,11,19)            0.0001         estimate D2E/DX2                !
 ! D41   D(5,6,11,20)          119.9637         estimate D2E/DX2                !
 ! D42   D(5,6,11,21)         -120.0004         estimate D2E/DX2                !
 ! D43   D(7,6,11,19)          180.0            estimate D2E/DX2                !
 ! D44   D(7,6,11,20)          -60.0364         estimate D2E/DX2                !
 ! D45   D(7,6,11,21)           59.9995         estimate D2E/DX2                !
 --------------------------------------------------------------------------------
 Trust Radius=3.00D-01 FncErr=1.00D-07 GrdErr=1.00D-06
 Number of steps in this run=    113 maximum allowed number of steps=    126.
 GradGradGradGradGradGradGradGradGradGradGradGradGradGradGradGradGradGrad

 Leave Link  103 at Wed Jun  9 00:19:03 2021, MaxMem=  3355443200 cpu:         0.1
 (Enter /usr/local/gqt/g09/l202.exe)
                          Input orientation:                          
 ---------------------------------------------------------------------
 Center     Atomic      Atomic             Coordinates (Angstroms)
 Number     Number       Type             X           Y           Z
 ---------------------------------------------------------------------
      1          6           0       -2.006184    1.246378   -1.231564
      2          6           0       -3.516163    1.142777   -1.401146
      3          6           0       -4.104954    0.757832   -0.066146
      4          7           0       -3.632087   -0.427197    0.430104
      5          6           0       -2.387066   -0.415900    1.173269
      6          7           0       -1.268352   -0.511872    0.250291
      7          6           0       -1.464786   -0.151126   -1.055633
      8          8           0       -4.920724    1.434891    0.512970
      9          8           0       -1.226029   -0.885947   -1.984233
     10          6           0       -4.358762   -1.663852    0.217669
     11          6           0        0.027427   -0.979486    0.702832
     12          1           0       -1.555508    1.715661   -2.134578
     13          1           0       -1.756343    1.874401   -0.347293
     14          1           0       -3.928277    2.123803   -1.727519
     15          1           0       -3.769558    0.381084   -2.172109
     16          1           0       -5.280284   -1.456827   -0.371150
     17          1           0       -3.715524   -2.380289   -0.340660
     18          1           0       -4.638126   -2.103461    1.201268
     19          1           0       -0.022688   -1.219813    1.788420
     20          1           0        0.311002   -1.893064    0.133860
     21          1           0        0.788215   -0.184909    0.533664
 ---------------------------------------------------------------------
                    Distance matrix (angstroms):
                    1          2          3          4          5
     1  C    0.000000
     2  C    1.523000   0.000000
     3  C    2.449839   1.509000   0.000000
     4  N    2.864534   2.414898   1.369000   0.000000
     5  C    2.948128   3.214335   2.421763   1.450000   0.000000
     6  N    2.414898   3.243110   3.123874   2.372076   1.453485
     7  C    1.509000   2.449839   2.962394   2.642125   2.426666
     8  O    3.401982   2.392062   1.208000   2.266015   3.206376
     9  O    2.392062   3.114551   3.830049   3.439272   3.396877
    10  C    4.013021   3.347791   2.451433   1.450000   2.521535
    11  C    3.582169   4.635489   4.548206   3.710990   2.523632
    12  H    1.113000   2.170319   3.419872   3.934668   4.022051
    13  H    1.113000   2.177808   2.615673   3.069221   2.820532
    14  H    2.170320   1.113000   2.158067   3.354201   4.152107
    15  H    2.177808   1.113000   2.165528   2.728320   3.706484
    16  H    4.332131   3.306200   2.525696   2.102070   3.440853
    17  H    4.107100   3.684613   3.174085   2.101335   2.813469
    18  H    4.905834   4.309225   3.174525   2.101587   2.813524
    19  H    4.374547   5.287677   4.900550   3.937134   2.571958
    20  H    4.133985   5.120524   5.154408   4.217165   3.246838
    21  H    3.601844   4.902439   5.019127   4.428148   3.247285
                    6          7          8          9         10
     6  N    0.000000
     7  C    1.369000   0.000000
     8  O    4.147132   4.113329   0.000000
     9  O    2.266014   1.208000   5.027234   0.000000
    10  C    3.298296   3.504959   3.163102   3.907368   0.000000
    11  C    1.450000   2.450526   5.509035   2.966516   4.465691
    12  H    3.275967   2.158065   4.291040   2.626695   4.981205
    13  H    2.507896   2.165528   3.308554   3.252741   4.428431
    14  H    4.234822   3.419871   2.545455   4.052979   4.279650
    15  H    3.594638   2.615672   3.105695   2.847842   3.199994
    16  H    4.168300   4.090403   3.045158   4.400560   1.113000
    17  H    3.135101   3.247488   4.091062   3.336462   1.113000
    18  H    3.846153   4.356065   3.615737   4.824123   1.112999
    19  H    2.102070   3.363090   5.715329   3.973966   4.633138
    20  H    2.101334   2.757293   6.212082   2.804116   4.676137
    21  H    2.101588   2.757357   5.934321   3.299763   5.364559
                   11         12         13         14         15
    11  C    0.000000
    12  H    4.221421   0.000000
    13  H    3.525517   1.805525   0.000000
    14  H    5.584318   2.441784   2.585444   0.000000
    15  H    4.953134   2.585444   3.100481   1.805525   0.000000
    16  H    5.436275   5.200799   4.849310   4.060612   2.983901
    17  H    4.130473   4.965946   4.684103   4.717572   3.313956
    18  H    4.824846   5.934315   5.150350   5.191478   4.278673
    19  H    1.113000   5.133854   4.140168   6.228581   5.682226
    20  H    1.113000   4.653232   4.324259   6.129555   5.209627
    21  H    1.113000   4.027992   3.389929   5.717377   5.330558
                   16         17         18         19         20
    16  H    0.000000
    17  H    1.817192   0.000000
    18  H    1.817416   1.818068   0.000000
    19  H    5.688781   4.417774   4.735805   0.000000
    20  H    5.630969   4.083561   5.067297   1.817191   0.000000
    21  H    6.266031   5.086040   5.794110   1.817416   1.818067
                   21
    21  H    0.000000
 Stoichiometry    C7H10N2O2
 Framework group  C1[X(C7H10N2O2)]
 Deg. of freedom    57
 Full point group                 C1      NOp   1
 Largest Abelian subgroup         C1      NOp   1
 Largest concise Abelian subgroup C1      NOp   1
                         Standard orientation:                         
 ---------------------------------------------------------------------
 Center     Atomic      Atomic             Coordinates (Angstroms)
 Number     Number       Type             X           Y           Z
 ---------------------------------------------------------------------
      1          6           0       -0.217053    1.691819   -0.388580
      2          6           0        1.168978    1.487006    0.208494
      3          6           0        1.689468    0.157239   -0.279249
      4          7           0        0.899031   -0.908097    0.059023
      5          6           0       -0.228946   -1.228275   -0.794004
      6          7           0       -1.376867   -0.426272   -0.404531
      7          6           0       -1.159780    0.731133    0.293644
      8          8           0        2.712299    0.042972   -0.911725
      9          8           0       -1.676752    0.962690    1.360596
     10          6           0        1.182964   -1.697282    1.241846
     11          6           0       -2.722566   -0.842974   -0.747975
     12          1           0       -0.552764    2.738667   -0.214867
     13          1           0       -0.199177    1.505939   -1.485802
     14          1           0        1.848247    2.303811   -0.123460
     15          1           0        1.119438    1.501120    1.320301
     16          1           0        2.083417   -1.289386    1.753292
     17          1           0        0.312353   -1.653944    1.933891
     18          1           0        1.370974   -2.753758    0.946420
     19          1           0       -2.682185   -1.802384   -1.310710
     20          1           0       -3.315616   -0.984337    0.183194
     21          1           0       -3.202601   -0.062440   -1.379721
 ---------------------------------------------------------------------
 Rotational constants (GHZ):      1.7514499      0.9875525      0.8327297
 Leave Link  202 at Wed Jun  9 00:19:03 2021, MaxMem=  3355443200 cpu:         0.0
 (Enter /usr/local/gqt/g09/l301.exe)
 Standard basis: 6-311+G(d,p) (5D, 7F)
 Ernie: Thresh=  0.10000D-02 Tol=  0.10000D-05 Strict=F.
 There are   313 symmetry adapted cartesian basis functions of A   symmetry.
 There are   302 symmetry adapted basis functions of A   symmetry.
   302 basis functions,   476 primitive gaussians,   313 cartesian basis functions
    41 alpha electrons       41 beta electrons
       nuclear repulsion energy       641.4918062004 Hartrees.
 IExCor= 5547 DFT=T Ex+Corr=N12SX ExCW=0 ScaHFX=  0.250000
 ScaDFX=  1.000000  1.000000  1.000000  1.000000 ScalE2=  1.000000  1.000000
 IRadAn=      0 IRanWt=     -1 IRanGd=            0 ICorTp=0 IEmpDi=  4
  HFx wShort=  0.110000 wLong=  0.000000 cFull=  0.000000 cShort=  1.000000 cLong=  0.000000
  DFx wShort=  0.110000 wLong=  0.000000 cFull=  0.000000 cShort=  1.000000 cLong=  0.000000
 NAtoms=   21 NActive=   21 NUniq=   21 SFac= 1.00D+00 NAtFMM=   60 NAOKFM=F Big=F
 Integral buffers will be    131072 words long.
 Raffenetti 2 integral format.
 Two-electron integral symmetry is turned on.
 ------------------------------------------------------------------------------
 Polarizable Continuum Model (PCM)
 =================================
 Model                : PCM (using non-symmetric T matrix).
 Atomic radii         : UFF (Universal Force Field).
 Polarization charges : Total charges.
 Charge compensation  : None.
 Solution method      : On-the-fly selection.
 Cavity type          : Scaled VdW (van der Waals Surface) (Alpha=1.100).
 Cavity algorithm     : GePol (No added spheres)
                        Default sphere list used, NSphG=   21.
                        Lebedev-Laikov grids with approx.  5.0 points / Ang**2.
                        Smoothing algorithm: Karplus/York (Gamma=1.0000).
                        Polarization charges: spherical gaussians, with
                                              point-specific exponents (IZeta= 3).
                        Self-potential: point-specific (ISelfS= 7).
                        Self-field    : sphere-specific E.n sum rule (ISelfD= 2).
 1st derivatives      : Analytical E(r).r(x)/FMM algorithm (CHGder, D1EAlg=3).
                        Cavity 1st derivative terms included.
 Solvent              : Water, Eps=  78.355300 Eps(inf)=   1.777849
 ------------------------------------------------------------------------------
 GePol: Number of generator spheres                  =      21
 GePol: Total number of spheres                      =      21
 GePol: Number of exposed spheres                    =      21 (100.00%)
 GePol: Number of points                             =    1636
 GePol: Average weight of points                     =       0.14
 GePol: Minimum weight of points                     =   0.16D-09
 GePol: Maximum weight of points                     =    0.20577
 GePol: Number of points with low weight             =     104
 GePol: Fraction of low-weight points (<1% of avg)   =       6.36%
 GePol: Cavity surface area                          =    221.998 Ang**2
 GePol: Cavity volume                                =    224.647 Ang**3
 Leave Link  301 at Wed Jun  9 00:19:03 2021, MaxMem=  3355443200 cpu:         0.7
 (Enter /usr/local/gqt/g09/l302.exe)
 NPDir=0 NMtPBC=     1 NCelOv=     1 NCel=       1 NClECP=     1 NCelD=      1
         NCelK=      1 NCelE2=     1 NClLst=     1 CellRange=     0.0.
 One-electron integrals computed using PRISM.
 NBasis=   302 RedAO= T EigKep=  1.73D-05  NBF=   302
 NBsUse=   302 1.00D-06 EigRej= -1.00D+00 NBFU=   302
 Precomputing XC quadrature grid using
 IXCGrd= 4 IRadAn=           0 IRanWt=          -1 IRanGd=           0 AccXCQ= 0.00D+00.
 Generated NRdTot=       0 NPtTot=           0 NUsed=           0 NTot=          32
 NSgBfM=   313   313   313   313   313 MxSgAt=    21 MxSgA2=    21.
 Leave Link  302 at Wed Jun  9 00:19:04 2021, MaxMem=  3355443200 cpu:         4.4
 (Enter /usr/local/gqt/g09/l303.exe)
 DipDrv:  MaxL=1.
 Leave Link  303 at Wed Jun  9 00:19:04 2021, MaxMem=  3355443200 cpu:         0.6
 (Enter /usr/local/gqt/g09/l401.exe)
 ExpMin= 4.38D-02 ExpMax= 8.59D+03 ExpMxC= 1.30D+03 IAcc=2 IRadAn=         4 AccDes= 0.00D+00
 Harris functional with IExCor= 5547 and IRadAn=       4 diagonalized for initial guess.
 HarFok:  IExCor= 5547 AccDes= 0.00D+00 IRadAn=         4 IDoV= 1 UseB2=F ITyADJ=14
 ICtDFT=  3500011 ScaDFX=  1.000000  1.000000  1.000000  1.000000
 FoFCou: FMM=F IPFlag=           0 FMFlag=      100000 FMFlg1=           0
         NFxFlg=           0 DoJE=T BraDBF=F KetDBF=T FulRan=T
         wScrn=  0.000000 ICntrl=     500 IOpCl=  0 I1Cent=   200000004 NGrid=           0
         NMat0=    1 NMatS0=      1 NMatT0=    0 NMatD0=    1 NMtDS0=    0 NMtDT0=    0
 Petite list used in FoFCou.
 Harris En= -516.619867792698    
 JPrj=0 DoOrth=F DoCkMO=F.
 Leave Link  401 at Wed Jun  9 00:19:05 2021, MaxMem=  3355443200 cpu:        13.6
 (Enter /usr/local/gqt/g09/l502.exe)
 Closed shell SCF:
 Using DIIS extrapolation, IDIIS=  1040.
 Integral symmetry usage will be decided dynamically.
 Keep R1 ints in memory in canonical form, NReq=2109181970.
 IVT=      319793 IEndB=      319793 NGot=  3355443200 MDV=  1261740646
 LenX=  1261740646 LenY=  1261642236
 Requested convergence on RMS density matrix=1.00D-08 within 128 cycles.
 Requested convergence on MAX density matrix=1.00D-06.
 Requested convergence on             energy=1.00D-06.
 No special actions if energy rises.
 FoFCou: FMM=F IPFlag=           0 FMFlag=           0 FMFlg1=           0
         NFxFlg=           0 DoJE=F BraDBF=F KetDBF=F FulRan=T
         wScrn=  0.000000 ICntrl=     600 IOpCl=  0 I1Cent=           0 NGrid=           0
         NMat0=    1 NMatS0=  45753 NMatT0=    0 NMatD0=    1 NMtDS0=    0 NMtDT0=    0
 Symmetry not used in FoFCou.

 Cycle   1  Pass 1  IDiag  1:
 Inv3:  Mode=1 IEnd=     8029488.
 Iteration    1 A*A^-1 deviation from unit magnitude is 4.00D-15 for   1630.
 Iteration    1 A*A^-1 deviation from orthogonality  is 4.60D-15 for   1251    243.
 Iteration    1 A^-1*A deviation from unit magnitude is 4.00D-15 for   1630.
 Iteration    1 A^-1*A deviation from orthogonality  is 9.86D-11 for   1563   1552.
 E= -532.277839268275    
 DIIS: error= 6.17D-02 at cycle   1 NSaved=   1.
 NSaved= 1 IEnMin= 1 EnMin= -532.277839268275     IErMin= 1 ErrMin= 6.17D-02
 ErrMax= 6.17D-02  0.00D+00 EMaxC= 1.00D-01 BMatC= 1.33D+00 BMatP= 1.33D+00
 IDIUse=3 WtCom= 3.83D-01 WtEn= 6.17D-01
 Coeff-Com:  0.100D+01
 Coeff-En:   0.100D+01
 Coeff:      0.100D+01
 Gap=     0.083 Goal=   None    Shift=    0.000
 GapD=    0.083 DampG=0.500 DampE=0.500 DampFc=0.2500 IDamp=-1.
 Damping current iteration by 2.50D-01
 RMSDP=5.06D-03 MaxDP=2.22D-01              OVMax= 1.31D-01

 Cycle   2  Pass 1  IDiag  1:
 E= -532.340107387486     Delta-E=       -0.062268119211 Rises=F Damp=T
 DIIS: error= 4.44D-02 at cycle   2 NSaved=   2.
 NSaved= 2 IEnMin= 2 EnMin= -532.340107387486     IErMin= 2 ErrMin= 4.44D-02
 ErrMax= 4.44D-02  0.00D+00 EMaxC= 1.00D-01 BMatC= 6.65D-01 BMatP= 1.33D+00
 IDIUse=3 WtCom= 5.56D-01 WtEn= 4.44D-01
 Coeff-Com: -0.205D+01 0.305D+01
 Coeff-En:   0.000D+00 0.100D+01
 Coeff:     -0.114D+01 0.214D+01
 Gap=     0.103 Goal=   None    Shift=    0.000
 RMSDP=3.29D-03 MaxDP=3.59D-01 DE=-6.23D-02 OVMax= 1.73D-01

 Cycle   3  Pass 1  IDiag  1:
 E= -532.426746820283     Delta-E=       -0.086639432797 Rises=F Damp=F
 DIIS: error= 1.24D-02 at cycle   3 NSaved=   3.
 NSaved= 3 IEnMin= 3 EnMin= -532.426746820283     IErMin= 3 ErrMin= 1.24D-02
 ErrMax= 1.24D-02  0.00D+00 EMaxC= 1.00D-01 BMatC= 4.98D-02 BMatP= 6.65D-01
 IDIUse=3 WtCom= 8.76D-01 WtEn= 1.24D-01
 Coeff-Com: -0.885D+00 0.126D+01 0.626D+00
 Coeff-En:   0.000D+00 0.000D+00 0.100D+01
 Coeff:     -0.776D+00 0.110D+01 0.673D+00
 Gap=     0.090 Goal=   None    Shift=    0.000
 RMSDP=1.41D-03 MaxDP=1.31D-01 DE=-8.66D-02 OVMax= 1.37D-01

 Cycle   4  Pass 1  IDiag  1:
 E= -532.445147992597     Delta-E=       -0.018401172314 Rises=F Damp=F
 DIIS: error= 9.54D-03 at cycle   4 NSaved=   4.
 NSaved= 4 IEnMin= 4 EnMin= -532.445147992597     IErMin= 4 ErrMin= 9.54D-03
 ErrMax= 9.54D-03  0.00D+00 EMaxC= 1.00D-01 BMatC= 2.79D-02 BMatP= 4.98D-02
 IDIUse=3 WtCom= 9.05D-01 WtEn= 9.54D-02
 Coeff-Com: -0.428D+00 0.603D+00 0.463D+00 0.362D+00
 Coeff-En:   0.000D+00 0.000D+00 0.387D+00 0.613D+00
 Coeff:     -0.387D+00 0.545D+00 0.456D+00 0.386D+00
 Gap=     0.097 Goal=   None    Shift=    0.000
 RMSDP=8.37D-04 MaxDP=6.01D-02 DE=-1.84D-02 OVMax= 4.62D-02

 Cycle   5  Pass 1  IDiag  1:
 E= -532.469146810087     Delta-E=       -0.023998817490 Rises=F Damp=F
 DIIS: error= 7.93D-04 at cycle   5 NSaved=   5.
 NSaved= 5 IEnMin= 5 EnMin= -532.469146810087     IErMin= 5 ErrMin= 7.93D-04
 ErrMax= 7.93D-04  0.00D+00 EMaxC= 1.00D-01 BMatC= 4.10D-04 BMatP= 2.79D-02
 IDIUse=3 WtCom= 9.92D-01 WtEn= 7.93D-03
 Coeff-Com: -0.147D+00 0.207D+00 0.205D+00 0.194D+00 0.541D+00
 Coeff-En:   0.000D+00 0.000D+00 0.000D+00 0.000D+00 0.100D+01
 Coeff:     -0.146D+00 0.206D+00 0.203D+00 0.192D+00 0.545D+00
 Gap=     0.096 Goal=   None    Shift=    0.000
 RMSDP=9.66D-05 MaxDP=2.88D-03 DE=-2.40D-02 OVMax= 5.89D-03

 Cycle   6  Pass 1  IDiag  1:
 E= -532.469406520029     Delta-E=       -0.000259709942 Rises=F Damp=F
 DIIS: error= 4.06D-04 at cycle   6 NSaved=   6.
 NSaved= 6 IEnMin= 6 EnMin= -532.469406520029     IErMin= 6 ErrMin= 4.06D-04
 ErrMax= 4.06D-04  0.00D+00 EMaxC= 1.00D-01 BMatC= 8.09D-05 BMatP= 4.10D-04
 IDIUse=3 WtCom= 9.96D-01 WtEn= 4.06D-03
 Coeff-Com: -0.856D-02 0.123D-01 0.409D-01 0.474D-01 0.344D+00 0.564D+00
 Coeff-En:   0.000D+00 0.000D+00 0.000D+00 0.000D+00 0.141D+00 0.859D+00
 Coeff:     -0.853D-02 0.122D-01 0.407D-01 0.472D-01 0.343D+00 0.566D+00
 Gap=     0.096 Goal=   None    Shift=    0.000
 RMSDP=4.90D-05 MaxDP=3.07D-03 DE=-2.60D-04 OVMax= 2.40D-03

 Cycle   7  Pass 1  IDiag  1:
 E= -532.469460755680     Delta-E=       -0.000054235651 Rises=F Damp=F
 DIIS: error= 1.26D-04 at cycle   7 NSaved=   7.
 NSaved= 7 IEnMin= 7 EnMin= -532.469460755680     IErMin= 7 ErrMin= 1.26D-04
 ErrMax= 1.26D-04  0.00D+00 EMaxC= 1.00D-01 BMatC= 1.12D-05 BMatP= 8.09D-05
 IDIUse=3 WtCom= 9.99D-01 WtEn= 1.26D-03
 Coeff-Com:  0.107D-01-0.149D-01 0.376D-02 0.750D-02 0.153D+00 0.352D+00
 Coeff-Com:  0.487D+00
 Coeff-En:   0.000D+00 0.000D+00 0.000D+00 0.000D+00 0.000D+00 0.707D-01
 Coeff-En:   0.929D+00
 Coeff:      0.107D-01-0.148D-01 0.376D-02 0.749D-02 0.153D+00 0.352D+00
 Coeff:      0.488D+00
 Gap=     0.097 Goal=   None    Shift=    0.000
 RMSDP=1.73D-05 MaxDP=1.53D-03 DE=-5.42D-05 OVMax= 7.20D-04

 Cycle   8  Pass 1  IDiag  1:
 E= -532.469469366783     Delta-E=       -0.000008611103 Rises=F Damp=F
 DIIS: error= 3.03D-05 at cycle   8 NSaved=   8.
 NSaved= 8 IEnMin= 8 EnMin= -532.469469366783     IErMin= 8 ErrMin= 3.03D-05
 ErrMax= 3.03D-05  0.00D+00 EMaxC= 1.00D-01 BMatC= 4.39D-07 BMatP= 1.12D-05
 IDIUse=1 WtCom= 1.00D+00 WtEn= 0.00D+00
 Coeff-Com:  0.473D-02-0.653D-02-0.159D-02-0.137D-02 0.332D-01 0.103D+00
 Coeff-Com:  0.223D+00 0.645D+00
 Coeff:      0.473D-02-0.653D-02-0.159D-02-0.137D-02 0.332D-01 0.103D+00
 Coeff:      0.223D+00 0.645D+00
 Gap=     0.097 Goal=   None    Shift=    0.000
 RMSDP=4.57D-06 MaxDP=1.93D-04 DE=-8.61D-06 OVMax= 1.95D-04

 Cycle   9  Pass 1  IDiag  1:
 E= -532.469469645757     Delta-E=       -0.000000278974 Rises=F Damp=F
 DIIS: error= 1.18D-05 at cycle   9 NSaved=   9.
 NSaved= 9 IEnMin= 9 EnMin= -532.469469645757     IErMin= 9 ErrMin= 1.18D-05
 ErrMax= 1.18D-05  0.00D+00 EMaxC= 1.00D-01 BMatC= 8.85D-08 BMatP= 4.39D-07
 IDIUse=1 WtCom= 1.00D+00 WtEn= 0.00D+00
 Coeff-Com:  0.138D-02-0.191D-02-0.104D-02-0.154D-02 0.320D-02 0.224D-01
 Coeff-Com:  0.723D-01 0.368D+00 0.537D+00
 Coeff:      0.138D-02-0.191D-02-0.104D-02-0.154D-02 0.320D-02 0.224D-01
 Coeff:      0.723D-01 0.368D+00 0.537D+00
 Gap=     0.097 Goal=   None    Shift=    0.000
 RMSDP=2.26D-06 MaxDP=7.16D-05 DE=-2.79D-07 OVMax= 8.14D-05

 Cycle  10  Pass 1  IDiag  1:
 E= -532.469469712258     Delta-E=       -0.000000066501 Rises=F Damp=F
 DIIS: error= 7.81D-06 at cycle  10 NSaved=  10.
 NSaved=10 IEnMin=10 EnMin= -532.469469712258     IErMin=10 ErrMin= 7.81D-06
 ErrMax= 7.81D-06  0.00D+00 EMaxC= 1.00D-01 BMatC= 1.95D-08 BMatP= 8.85D-08
 IDIUse=1 WtCom= 1.00D+00 WtEn= 0.00D+00
 Coeff-Com:  0.102D-03-0.140D-03-0.318D-03-0.847D-03-0.277D-02 0.112D-03
 Coeff-Com:  0.144D-01 0.152D+00 0.346D+00 0.492D+00
 Coeff:      0.102D-03-0.140D-03-0.318D-03-0.847D-03-0.277D-02 0.112D-03
 Coeff:      0.144D-01 0.152D+00 0.346D+00 0.492D+00
 Gap=     0.097 Goal=   None    Shift=    0.000
 RMSDP=6.61D-07 MaxDP=3.31D-05 DE=-6.65D-08 OVMax= 4.18D-05

 Cycle  11  Pass 1  IDiag  1:
 E= -532.469469724621     Delta-E=       -0.000000012364 Rises=F Damp=F
 DIIS: error= 2.28D-06 at cycle  11 NSaved=  11.
 NSaved=11 IEnMin=11 EnMin= -532.469469724621     IErMin=11 ErrMin= 2.28D-06
 ErrMax= 2.28D-06  0.00D+00 EMaxC= 1.00D-01 BMatC= 2.77D-09 BMatP= 1.95D-08
 IDIUse=1 WtCom= 1.00D+00 WtEn= 0.00D+00
 Coeff-Com: -0.103D-03 0.145D-03-0.462D-04-0.349D-03-0.211D-02-0.313D-02
 Coeff-Com: -0.357D-02 0.337D-01 0.125D+00 0.302D+00 0.549D+00
 Coeff:     -0.103D-03 0.145D-03-0.462D-04-0.349D-03-0.211D-02-0.313D-02
 Coeff:     -0.357D-02 0.337D-01 0.125D+00 0.302D+00 0.549D+00
 Gap=     0.097 Goal=   None    Shift=    0.000
 RMSDP=2.61D-07 MaxDP=2.23D-05 DE=-1.24D-08 OVMax= 1.07D-05

 Cycle  12  Pass 1  IDiag  1:
 E= -532.469469726854     Delta-E=       -0.000000002233 Rises=F Damp=F
 DIIS: error= 6.49D-07 at cycle  12 NSaved=  12.
 NSaved=12 IEnMin=12 EnMin= -532.469469726854     IErMin=12 ErrMin= 6.49D-07
 ErrMax= 6.49D-07  0.00D+00 EMaxC= 1.00D-01 BMatC= 1.30D-10 BMatP= 2.77D-09
 IDIUse=1 WtCom= 1.00D+00 WtEn= 0.00D+00
 Coeff-Com: -0.194D-04 0.271D-04 0.437D-05-0.760D-04-0.463D-03-0.942D-03
 Coeff-Com: -0.294D-02-0.189D-02 0.953D-02 0.548D-01 0.173D+00 0.769D+00
 Coeff:     -0.194D-04 0.271D-04 0.437D-05-0.760D-04-0.463D-03-0.942D-03
 Coeff:     -0.294D-02-0.189D-02 0.953D-02 0.548D-01 0.173D+00 0.769D+00
 Gap=     0.097 Goal=   None    Shift=    0.000
 RMSDP=1.13D-07 MaxDP=7.94D-06 DE=-2.23D-09 OVMax= 3.32D-06

 Cycle  13  Pass 1  IDiag  1:
 E= -532.469469726965     Delta-E=       -0.000000000111 Rises=F Damp=F
 DIIS: error= 1.81D-07 at cycle  13 NSaved=  13.
 NSaved=13 IEnMin=13 EnMin= -532.469469726965     IErMin=13 ErrMin= 1.81D-07
 ErrMax= 1.81D-07  0.00D+00 EMaxC= 1.00D-01 BMatC= 1.57D-11 BMatP= 1.30D-10
 IDIUse=1 WtCom= 1.00D+00 WtEn= 0.00D+00
 Coeff-Com: -0.389D-05 0.528D-05 0.871D-05-0.956D-05-0.790D-04-0.274D-03
 Coeff-Com: -0.147D-02-0.435D-02-0.653D-02 0.764D-03 0.345D-01 0.387D+00
 Coeff-Com:  0.590D+00
 Coeff:     -0.389D-05 0.528D-05 0.871D-05-0.956D-05-0.790D-04-0.274D-03
 Coeff:     -0.147D-02-0.435D-02-0.653D-02 0.764D-03 0.345D-01 0.387D+00
 Coeff:      0.590D+00
 Gap=     0.097 Goal=   None    Shift=    0.000
 RMSDP=3.10D-08 MaxDP=1.28D-06 DE=-1.11D-10 OVMax= 1.43D-06

 Cycle  14  Pass 1  IDiag  1:
 E= -532.469469726992     Delta-E=       -0.000000000027 Rises=F Damp=F
 DIIS: error= 2.83D-08 at cycle  14 NSaved=  14.
 NSaved=14 IEnMin=14 EnMin= -532.469469726992     IErMin=14 ErrMin= 2.83D-08
 ErrMax= 2.83D-08  0.00D+00 EMaxC= 1.00D-01 BMatC= 5.19D-13 BMatP= 1.57D-11
 IDIUse=1 WtCom= 1.00D+00 WtEn= 0.00D+00
 Coeff-Com:  0.964D-06-0.138D-05 0.207D-05 0.238D-05 0.151D-04-0.112D-05
 Coeff-Com: -0.237D-03-0.117D-02-0.293D-02-0.485D-02-0.512D-02 0.667D-01
 Coeff-Com:  0.212D+00 0.736D+00
 Coeff:      0.964D-06-0.138D-05 0.207D-05 0.238D-05 0.151D-04-0.112D-05
 Coeff:     -0.237D-03-0.117D-02-0.293D-02-0.485D-02-0.512D-02 0.667D-01
 Coeff:      0.212D+00 0.736D+00
 Gap=     0.097 Goal=   None    Shift=    0.000
 RMSDP=6.38D-09 MaxDP=2.80D-07 DE=-2.66D-11 OVMax= 2.76D-07

 Error on total polarization charges =  0.01414
 SCF Done:  E(RN12SX) =  -532.469469727     A.U. after   14 cycles
            NFock= 14  Conv=0.64D-08     -V/T= 2.0057
 KE= 5.294425328439D+02 PE=-2.525541870026D+03 EE= 8.221380612549D+02
 Leave Link  502 at Wed Jun  9 00:20:14 2021, MaxMem=  3355443200 cpu:       882.2
 (Enter /usr/local/gqt/g09/l601.exe)
 Copying SCF densities to generalized density rwf, IOpCl= 0 IROHF=0.

 **********************************************************************

            Population analysis using the SCF density.

 **********************************************************************

 Orbital symmetries:
       Occupied  (A) (A) (A) (A) (A) (A) (A) (A) (A) (A) (A) (A)
                 (A) (A) (A) (A) (A) (A) (A) (A) (A) (A) (A) (A)
                 (A) (A) (A) (A) (A) (A) (A) (A) (A) (A) (A) (A)
                 (A) (A) (A) (A) (A)
       Virtual   (A) (A) (A) (A) (A) (A) (A) (A) (A) (A) (A) (A)
                 (A) (A) (A) (A) (A) (A) (A) (A) (A) (A) (A) (A)
                 (A) (A) (A) (A) (A) (A) (A) (A) (A) (A) (A) (A)
                 (A) (A) (A) (A) (A) (A) (A) (A) (A) (A) (A) (A)
                 (A) (A) (A) (A) (A) (A) (A) (A) (A) (A) (A) (A)
                 (A) (A) (A) (A) (A) (A) (A) (A) (A) (A) (A) (A)
                 (A) (A) (A) (A) (A) (A) (A) (A) (A) (A) (A) (A)
                 (A) (A) (A) (A) (A) (A) (A) (A) (A) (A) (A) (A)
                 (A) (A) (A) (A) (A) (A) (A) (A) (A) (A) (A) (A)
                 (A) (A) (A) (A) (A) (A) (A) (A) (A) (A) (A) (A)
                 (A) (A) (A) (A) (A) (A) (A) (A) (A) (A) (A) (A)
                 (A) (A) (A) (A) (A) (A) (A) (A) (A) (A) (A) (A)
                 (A) (A) (A) (A) (A) (A) (A) (A) (A) (A) (A) (A)
                 (A) (A) (A) (A) (A) (A) (A) (A) (A) (A) (A) (A)
                 (A) (A) (A) (A) (A) (A) (A) (A) (A) (A) (A) (A)
                 (A) (A) (A) (A) (A) (A) (A) (A) (A) (A) (A) (A)
                 (A) (A) (A) (A) (A) (A) (A) (A) (A) (A) (A) (A)
                 (A) (A) (A) (A) (A) (A) (A) (A) (A) (A) (A) (A)
                 (A) (A) (A) (A) (A) (A) (A) (A) (A) (A) (A) (A)
                 (A) (A) (A) (A) (A) (A) (A) (A) (A) (A) (A) (A)
                 (A) (A) (A) (A) (A) (A) (A) (A) (A) (A) (A) (A)
                 (A) (A) (A) (A) (A) (A) (A) (A) (A)
 The electronic state is 1-A.
 Alpha  occ. eigenvalues --  -19.19105 -19.18363 -14.43770 -14.37670 -10.36510
 Alpha  occ. eigenvalues --  -10.35617 -10.32756 -10.27140 -10.26862 -10.25499
 Alpha  occ. eigenvalues --  -10.24964  -1.08841  -1.07439  -0.98638  -0.93173
 Alpha  occ. eigenvalues --   -0.82460  -0.74397  -0.72435  -0.67984  -0.67061
 Alpha  occ. eigenvalues --   -0.58154  -0.54245  -0.52857  -0.49748  -0.49081
 Alpha  occ. eigenvalues --   -0.48373  -0.47594  -0.45483  -0.44414  -0.43256
 Alpha  occ. eigenvalues --   -0.41047  -0.40697  -0.39830  -0.39449  -0.38221
 Alpha  occ. eigenvalues --   -0.36917  -0.31818  -0.30344  -0.29450  -0.27023
 Alpha  occ. eigenvalues --   -0.20554
 Alpha virt. eigenvalues --   -0.10877  -0.05948  -0.03249  -0.00372   0.00757
 Alpha virt. eigenvalues --    0.01046   0.01955   0.02856   0.03505   0.03937
 Alpha virt. eigenvalues --    0.04478   0.04604   0.06049   0.06559   0.06932
 Alpha virt. eigenvalues --    0.07392   0.07784   0.08136   0.08254   0.09853
 Alpha virt. eigenvalues --    0.10182   0.10983   0.11233   0.11830   0.12916
 Alpha virt. eigenvalues --    0.13426   0.14707   0.15082   0.15371   0.15559
 Alpha virt. eigenvalues --    0.16760   0.17171   0.17554   0.17966   0.18787
 Alpha virt. eigenvalues --    0.18967   0.19700   0.20041   0.21272   0.21569
 Alpha virt. eigenvalues --    0.22743   0.23227   0.23797   0.24295   0.24553
 Alpha virt. eigenvalues --    0.25247   0.26638   0.27238   0.28113   0.28159
 Alpha virt. eigenvalues --    0.29772   0.30286   0.30749   0.31343   0.31922
 Alpha virt. eigenvalues --    0.32414   0.33654   0.34116   0.34663   0.35652
 Alpha virt. eigenvalues --    0.36161   0.37493   0.38575   0.39155   0.40658
 Alpha virt. eigenvalues --    0.41112   0.42957   0.44371   0.45814   0.47076
 Alpha virt. eigenvalues --    0.48468   0.48533   0.50130   0.52475   0.52833
 Alpha virt. eigenvalues --    0.54117   0.54518   0.55548   0.58223   0.59966
 Alpha virt. eigenvalues --    0.60095   0.60678   0.63093   0.64423   0.65404
 Alpha virt. eigenvalues --    0.66010   0.67264   0.68133   0.68298   0.70303
 Alpha virt. eigenvalues --    0.70697   0.71356   0.71934   0.72677   0.74079
 Alpha virt. eigenvalues --    0.75831   0.76244   0.77622   0.77932   0.78443
 Alpha virt. eigenvalues --    0.82407   0.86948   0.88063   0.89660   0.90985
 Alpha virt. eigenvalues --    0.93140   0.94022   0.97577   0.99959   1.04183
 Alpha virt. eigenvalues --    1.05465   1.07345   1.09382   1.13481   1.16429
 Alpha virt. eigenvalues --    1.16752   1.19144   1.19743   1.23758   1.24114
 Alpha virt. eigenvalues --    1.26110   1.27708   1.30262   1.33262   1.35851
 Alpha virt. eigenvalues --    1.37744   1.40272   1.41882   1.42648   1.44030
 Alpha virt. eigenvalues --    1.45020   1.48975   1.50932   1.53588   1.53969
 Alpha virt. eigenvalues --    1.54209   1.55628   1.56163   1.56315   1.57859
 Alpha virt. eigenvalues --    1.59445   1.59709   1.62374   1.63656   1.64483
 Alpha virt. eigenvalues --    1.66086   1.67264   1.67871   1.68623   1.69993
 Alpha virt. eigenvalues --    1.72081   1.74479   1.76435   1.77677   1.80252
 Alpha virt. eigenvalues --    1.81319   1.81661   1.84077   1.85236   1.87010
 Alpha virt. eigenvalues --    1.89393   1.91891   1.93660   1.98933   1.99540
 Alpha virt. eigenvalues --    2.03087   2.05913   2.06755   2.08404   2.10380
 Alpha virt. eigenvalues --    2.13334   2.16216   2.19683   2.21825   2.22853
 Alpha virt. eigenvalues --    2.27985   2.33018   2.33817   2.39564   2.40461
 Alpha virt. eigenvalues --    2.41837   2.44587   2.45676   2.47532   2.48862
 Alpha virt. eigenvalues --    2.49840   2.52865   2.54020   2.56140   2.56567
 Alpha virt. eigenvalues --    2.58082   2.59435   2.61114   2.64871   2.65647
 Alpha virt. eigenvalues --    2.69010   2.69917   2.71804   2.75785   2.77054
 Alpha virt. eigenvalues --    2.79679   2.81266   2.83612   2.84678   2.86470
 Alpha virt. eigenvalues --    2.90225   2.91432   2.92377   2.95592   2.96292
 Alpha virt. eigenvalues --    2.97488   2.97865   3.02068   3.07166   3.10509
 Alpha virt. eigenvalues --    3.16606   3.20752   3.32957   3.34499   3.36092
 Alpha virt. eigenvalues --    3.39726   3.43409   3.46457   3.50622   3.52656
 Alpha virt. eigenvalues --    3.61589   3.65433   3.70147   3.74308   3.75914
 Alpha virt. eigenvalues --    3.76363   3.79139   3.83575   3.91425   3.95928
 Alpha virt. eigenvalues --    3.98121   4.07768   4.13281   4.17195   4.21994
 Alpha virt. eigenvalues --    4.59281   4.84040   4.88023   4.92647   5.03973
 Alpha virt. eigenvalues --    5.04760   5.13727   5.15144   5.68686   5.69798
 Alpha virt. eigenvalues --   23.49520  23.71304  23.74289  23.75848  23.77135
 Alpha virt. eigenvalues --   23.80334  23.81497  35.29741  35.37340  49.66253
 Alpha virt. eigenvalues --   49.69452
          Condensed to atoms (all electrons):
               1          2          3          4          5          6
     1  C    6.813283  -0.015244  -0.238773  -0.067792  -0.000377   0.024656
     2  C   -0.015244   6.507737  -0.268638  -0.225972   0.144150   0.017593
     3  C   -0.238773  -0.268638   6.203233  -0.043600  -0.378781  -0.007132
     4  N   -0.067792  -0.225972  -0.043600   7.703753   0.065729  -0.359843
     5  C   -0.000377   0.144150  -0.378781   0.065729   6.987357   0.045066
     6  N    0.024656   0.017593  -0.007132  -0.359843   0.045066   7.442630
     7  C   -1.171644  -0.567852   0.527646   0.021426  -0.113890  -0.400844
     8  O   -0.036944  -0.102460   0.518826  -0.072645  -0.010762  -0.028041
     9  O    0.021999  -0.023078  -0.013990   0.020539   0.000521  -0.112044
    10  C    0.032676  -0.032179  -0.115334   0.129273  -0.158223   0.054188
    11  C   -0.038457  -0.031294  -0.010271  -0.011990  -0.260025   0.267778
    12  H    0.453725  -0.060456   0.027817  -0.001987  -0.005720   0.011961
    13  H    0.503019  -0.019700  -0.044513   0.010564   0.011677  -0.006882
    14  H   -0.067151   0.426255  -0.046899   0.023452   0.001011  -0.007471
    15  H   -0.017821   0.519020  -0.075551  -0.006385   0.001947   0.008938
    16  H   -0.004541  -0.004079   0.030096  -0.048386   0.011584  -0.005170
    17  H    0.006588  -0.001964   0.002955  -0.107955  -0.019617   0.053349
    18  H   -0.003689   0.000165  -0.018633  -0.050478   0.023909  -0.016770
    19  H   -0.003642   0.000614  -0.000775   0.002563   0.026942  -0.047338
    20  H    0.013266   0.000583   0.000922   0.002409  -0.019017  -0.032164
    21  H   -0.013809  -0.004526   0.000424  -0.005556  -0.006177  -0.064071
               7          8          9         10         11         12
     1  C   -1.171644  -0.036944   0.021999   0.032676  -0.038457   0.453725
     2  C   -0.567852  -0.102460  -0.023078  -0.032179  -0.031294  -0.060456
     3  C    0.527646   0.518826  -0.013990  -0.115334  -0.010271   0.027817
     4  N    0.021426  -0.072645   0.020539   0.129273  -0.011990  -0.001987
     5  C   -0.113890  -0.010762   0.000521  -0.158223  -0.260025  -0.005720
     6  N   -0.400844  -0.028041  -0.112044   0.054188   0.267778   0.011961
     7  C    7.987811   0.010486   0.457951  -0.111987  -0.198155  -0.051938
     8  O    0.010486   8.013374   0.000624  -0.001807  -0.003516  -0.000377
     9  O    0.457951   0.000624   7.962938  -0.007957  -0.025611  -0.010795
    10  C   -0.111987  -0.001807  -0.007957   5.249722   0.001158   0.001644
    11  C   -0.198155  -0.003516  -0.025611   0.001158   5.363617  -0.000133
    12  H   -0.051938  -0.000377  -0.010795   0.001644  -0.000133   0.429085
    13  H   -0.108476   0.002813   0.005446  -0.000677  -0.000138  -0.023627
    14  H    0.034439  -0.003886  -0.000220  -0.001436  -0.000431  -0.005486
    15  H   -0.083271  -0.002068   0.004721   0.005599   0.000521  -0.003960
    16  H   -0.003389   0.002488   0.000054   0.393290  -0.000688  -0.000001
    17  H   -0.010342  -0.003405  -0.001924   0.432470   0.004749  -0.000013
    18  H    0.011993   0.003910  -0.000057   0.424293  -0.001871  -0.000007
    19  H    0.011496   0.000019  -0.000233   0.000222   0.384992   0.000016
    20  H   -0.028546   0.000021   0.009014   0.000703   0.425672   0.000129
    21  H    0.030960  -0.000057  -0.003307  -0.000196   0.428180  -0.000315
              13         14         15         16         17         18
     1  C    0.503019  -0.067151  -0.017821  -0.004541   0.006588  -0.003689
     2  C   -0.019700   0.426255   0.519020  -0.004079  -0.001964   0.000165
     3  C   -0.044513  -0.046899  -0.075551   0.030096   0.002955  -0.018633
     4  N    0.010564   0.023452  -0.006385  -0.048386  -0.107955  -0.050478
     5  C    0.011677   0.001011   0.001947   0.011584  -0.019617   0.023909
     6  N   -0.006882  -0.007471   0.008938  -0.005170   0.053349  -0.016770
     7  C   -0.108476   0.034439  -0.083271  -0.003389  -0.010342   0.011993
     8  O    0.002813  -0.003886  -0.002068   0.002488  -0.003405   0.003910
     9  O    0.005446  -0.000220   0.004721   0.000054  -0.001924  -0.000057
    10  C   -0.000677  -0.001436   0.005599   0.393290   0.432470   0.424293
    11  C   -0.000138  -0.000431   0.000521  -0.000688   0.004749  -0.001871
    12  H   -0.023627  -0.005486  -0.003960  -0.000001  -0.000013  -0.000007
    13  H    0.438612  -0.002710   0.003445   0.000018  -0.000069   0.000041
    14  H   -0.002710   0.464169  -0.022680  -0.000148  -0.000113   0.000055
    15  H    0.003445  -0.022680   0.426573   0.000616   0.000851  -0.000162
    16  H    0.000018  -0.000148   0.000616   0.478205  -0.021626  -0.017953
    17  H   -0.000069  -0.000113   0.000851  -0.021626   0.524710  -0.040316
    18  H    0.000041   0.000055  -0.000162  -0.017953  -0.040316   0.507497
    19  H    0.000101   0.000000   0.000000   0.000001  -0.000035   0.000046
    20  H   -0.000168  -0.000002  -0.000017  -0.000011   0.000037  -0.000034
    21  H    0.000311   0.000004   0.000009   0.000000   0.000069  -0.000004
              19         20         21
     1  C   -0.003642   0.013266  -0.013809
     2  C    0.000614   0.000583  -0.004526
     3  C   -0.000775   0.000922   0.000424
     4  N    0.002563   0.002409  -0.005556
     5  C    0.026942  -0.019017  -0.006177
     6  N   -0.047338  -0.032164  -0.064071
     7  C    0.011496  -0.028546   0.030960
     8  O    0.000019   0.000021  -0.000057
     9  O   -0.000233   0.009014  -0.003307
    10  C    0.000222   0.000703  -0.000196
    11  C    0.384992   0.425672   0.428180
    12  H    0.000016   0.000129  -0.000315
    13  H    0.000101  -0.000168   0.000311
    14  H    0.000000  -0.000002   0.000004
    15  H    0.000000  -0.000017   0.000009
    16  H    0.000001  -0.000011   0.000000
    17  H   -0.000035   0.000037   0.000069
    18  H    0.000046  -0.000034  -0.000004
    19  H    0.470009  -0.019561  -0.018305
    20  H   -0.019561   0.468904  -0.028991
    21  H   -0.018305  -0.028991   0.490231
 Mulliken charges:
               1
     1  C   -0.189329
     2  C   -0.258674
     3  C   -0.049028
     4  N    0.022882
     5  C   -0.347302
     6  N    0.161610
     7  C   -0.243873
     8  O   -0.286593
     9  O   -0.284592
    10  C   -0.295443
    11  C   -0.294088
    12  H    0.240435
    13  H    0.230915
    14  H    0.209249
    15  H    0.239676
    16  H    0.189640
    17  H    0.181602
    18  H    0.178062
    19  H    0.192871
    20  H    0.206852
    21  H    0.195127
 Sum of Mulliken charges =   0.00000
 Mulliken charges with hydrogens summed into heavy atoms:
               1
     1  C    0.282022
     2  C    0.190251
     3  C   -0.049028
     4  N    0.022882
     5  C   -0.347302
     6  N    0.161610
     7  C   -0.243873
     8  O   -0.286593
     9  O   -0.284592
    10  C    0.253861
    11  C    0.300762
 Electronic spatial extent (au):  <R**2>=           1564.2296
 Charge=              0.0000 electrons
 Dipole moment (field-independent basis, Debye):
    X=             -3.1058    Y=              2.0936    Z=              1.0202  Tot=              3.8820
 Quadrupole moment (field-independent basis, Debye-Ang):
   XX=            -70.0120   YY=            -63.2980   ZZ=            -69.2128
   XY=              3.9081   XZ=             14.0563   YZ=             -8.1298
 Traceless Quadrupole moment (field-independent basis, Debye-Ang):
   XX=             -2.5044   YY=              4.2096   ZZ=             -1.7052
   XY=              3.9081   XZ=             14.0563   YZ=             -8.1298
 Octapole moment (field-independent basis, Debye-Ang**2):
  XXX=            -54.4558  YYY=             22.2188  ZZZ=              5.1253  XYY=              3.7150
  XXY=             -8.5330  XXZ=              6.7887  XZZ=              3.6710  YZZ=              1.6685
  YYZ=              6.7897  XYZ=              2.1537
 Hexadecapole moment (field-independent basis, Debye-Ang**3):
 XXXX=          -1151.6923 YYYY=           -592.5236 ZZZZ=           -339.9614 XXXY=             25.5160
 XXXZ=             79.5646 YYYX=             -2.6218 YYYZ=            -26.3099 ZZZX=             15.5437
 ZZZY=            -21.6549 XXYY=           -273.2991 XXZZ=           -251.6027 YYZZ=           -167.5646
 XXYZ=            -10.4115 YYXZ=             10.0016 ZZXY=              5.8969
 N-N= 6.414918062004D+02 E-N=-2.525541866288D+03  KE= 5.294425328439D+02
 No NMR shielding tensors so no spin-rotation constants.
 Leave Link  601 at Wed Jun  9 00:20:15 2021, MaxMem=  3355443200 cpu:         2.1
 (Enter /usr/local/gqt/g09/l701.exe)
 Compute integral first derivatives.
 ... and contract with generalized density number  0.
 D1PCM: PCM CHGder 1st derivatives, ID1Alg=3 FixD1E=F DoIter=F DoCFld=F I1PDM=0.
 GePol: Maximum number of non-zero 1st derivatives   =     219
 Leave Link  701 at Wed Jun  9 00:20:16 2021, MaxMem=  3355443200 cpu:        20.5
 (Enter /usr/local/gqt/g09/l702.exe)
 L702 exits ... SP integral derivatives will be done elsewhere.
 Leave Link  702 at Wed Jun  9 00:20:16 2021, MaxMem=  3355443200 cpu:         0.3
 (Enter /usr/local/gqt/g09/l703.exe)
 Compute integral first derivatives, UseDBF=F ICtDFT=           0.
 Integral derivatives from FoFJK, PRISM(SPDF).
 Calling FoFJK, ICntrl=      2127 FMM=F ISym2X=0 I1Cent= 0 IOpClX= 0 NMat=1 NMatS=1 NMatT=0.
 FoFJK:  IHMeth= 1 ICntrl=    2127 DoSepK=T KAlg= 0 I1Cent=   0 FoldK=F
 IRaf=         1 NMat=   1 IRICut=       1 DoRegI=T DoRafI=F ISym2E= 0.
 FoFCou: FMM=F IPFlag=           0 FMFlag=      100000 FMFlg1=         800
         NFxFlg=           0 DoJE=F BraDBF=F KetDBF=F FulRan=T
         wScrn=  0.000000 ICntrl=    2527 IOpCl=  0 I1Cent=           0 NGrid=           0
         NMat0=    1 NMatS0=      1 NMatT0=    0 NMatD0=    1 NMtDS0=    0 NMtDT0=    0
 Symmetry not used in FoFCou.
 Leave Link  703 at Wed Jun  9 00:20:42 2021, MaxMem=  3355443200 cpu:       416.5
 (Enter /usr/local/gqt/g09/l716.exe)
 Dipole        =-1.22191266D+00 8.23683688D-01 4.01361458D-01
 ***** Axes restored to original set *****
 -------------------------------------------------------------------
 Center     Atomic                   Forces (Hartrees/Bohr)
 Number     Number              X              Y              Z
 -------------------------------------------------------------------
      1        6           0.010913401    0.010605209   -0.006210657
      2        6          -0.015558969    0.020800042   -0.009351793
      3        6          -0.018019793    0.025043846   -0.022186197
      4        7           0.022917539   -0.001149620    0.011089812
      5        6           0.047198943   -0.040537000   -0.039120438
      6        7          -0.055991517   -0.000458053    0.080739138
      7        6           0.002976742    0.008366553   -0.043747726
      8        8           0.000009033   -0.002960610   -0.003342417
      9        8           0.002568565    0.003036311    0.006355629
     10        6          -0.001862101   -0.011890577    0.010618798
     11        6           0.016170319    0.001187908    0.006510996
     12        1          -0.006197786   -0.009778119    0.012728333
     13        1          -0.002541753   -0.008130118   -0.014507944
     14        1           0.005679605   -0.014504656    0.004345784
     15        1           0.002741534    0.009128733    0.011576819
     16        1           0.014621976   -0.002388191    0.009897490
     17        1          -0.011503180    0.007011301    0.006510852
     18        1           0.000814260    0.001425482   -0.014115538
     19        1          -0.002041424    0.004549648   -0.018512336
     20        1          -0.004560985    0.013728085    0.008051470
     21        1          -0.008334408   -0.013086172    0.002669925
 -------------------------------------------------------------------
 Cartesian Forces:  Max     0.080739138 RMS     0.019318331
 Leave Link  716 at Wed Jun  9 00:20:42 2021, MaxMem=  3355443200 cpu:         0.3
 (Enter /usr/local/gqt/g09/l103.exe)

 GradGradGradGradGradGradGradGradGradGradGradGradGradGradGradGradGradGrad
 Berny optimization.
 FormGI is forming the generalized inverse of G from B-inverse, IUseBI=4.
 Internal  Forces:  Max     0.065803311 RMS     0.010898833
 Search for a local minimum.
 Step number   1 out of a maximum of  113
 All quantities printed in internal units (Hartrees-Bohrs-Radians)
 RMS Force = .10899D-01 SwitMx=.10000D-02 MixMth= 1
 Mixed Optimization -- RFO/linear search
 Second derivative matrix not updated -- first step.
 ITU=  0
     Eigenvalues ---    0.00825   0.01005   0.01030   0.01030   0.01185
     Eigenvalues ---    0.01387   0.01521   0.01651   0.02359   0.04345
     Eigenvalues ---    0.04708   0.05176   0.05684   0.06903   0.07682
     Eigenvalues ---    0.07682   0.07686   0.07686   0.07835   0.08635
     Eigenvalues ---    0.08705   0.11504   0.13881   0.16000   0.16000
     Eigenvalues ---    0.16000   0.16000   0.16000   0.16000   0.16991
     Eigenvalues ---    0.23392   0.24484   0.25000   0.25000   0.25000
     Eigenvalues ---    0.25000   0.29460   0.30364   0.30961   0.32284
     Eigenvalues ---    0.32284   0.32284   0.32284   0.32284   0.32284
     Eigenvalues ---    0.32284   0.32284   0.32284   0.32285   0.36961
     Eigenvalues ---    0.37159   0.38245   0.38245   0.48682   0.50215
     Eigenvalues ---    1.00904   1.00904
 RFO step:  Lambda=-3.83051987D-02 EMin= 8.24612485D-03
 Linear search not attempted -- first point.
 Iteration  1 RMS(Cart)=  0.06565895 RMS(Int)=  0.00360726
 Iteration  2 RMS(Cart)=  0.00529594 RMS(Int)=  0.00100205
 Iteration  3 RMS(Cart)=  0.00002459 RMS(Int)=  0.00100195
 Iteration  4 RMS(Cart)=  0.00000003 RMS(Int)=  0.00100195
 ITry= 1 IFail=0 DXMaxC= 3.17D-01 DCOld= 1.00D+10 DXMaxT= 3.00D-01 DXLimC= 3.00D+00 Rises=F
 Variable       Old X    -DE/DX   Delta X   Delta X   Delta X     New X
                                 (Linear)    (Quad)   (Total)
    R1        2.87805   0.00377   0.00000   0.01219   0.01289   2.89094
    R2        2.85160   0.00279   0.00000   0.00458   0.00497   2.85657
    R3        2.10327  -0.01696   0.00000  -0.04696  -0.04696   2.05631
    R4        2.10326  -0.01669   0.00000  -0.04620  -0.04620   2.05706
    R5        2.85160  -0.00091   0.00000  -0.00425  -0.00412   2.84748
    R6        2.10327  -0.01616   0.00000  -0.04475  -0.04475   2.05851
    R7        2.10327  -0.01489   0.00000  -0.04123  -0.04123   2.06204
    R8        2.58704   0.04036   0.00000   0.07484   0.07445   2.66149
    R9        2.28279  -0.00327   0.00000  -0.00312  -0.00312   2.27967
   R10        2.74010  -0.00449   0.00000  -0.01238  -0.01304   2.72706
   R11        2.74010   0.00205   0.00000   0.00487   0.00487   2.74497
   R12        2.74669  -0.06580   0.00000  -0.15636  -0.15683   2.58986
   R13        2.58704   0.04190   0.00000   0.07751   0.07771   2.66475
   R14        2.74010  -0.00135   0.00000  -0.00322  -0.00322   2.73688
   R15        2.28279  -0.00622   0.00000  -0.00594  -0.00594   2.27685
   R16        2.10327  -0.01779   0.00000  -0.04926  -0.04926   2.05401
   R17        2.10326  -0.01443   0.00000  -0.03995  -0.03995   2.06331
   R18        2.10326  -0.01324   0.00000  -0.03666  -0.03666   2.06661
   R19        2.10327  -0.01895   0.00000  -0.05247  -0.05247   2.05079
   R20        2.10326  -0.01655   0.00000  -0.04581  -0.04581   2.05745
   R21        2.10327  -0.01544   0.00000  -0.04276  -0.04276   2.06051
    A1        1.88147   0.00241   0.00000   0.04190   0.04132   1.92279
    A2        1.91750   0.00389   0.00000   0.01508   0.01562   1.93312
    A3        1.92773  -0.00395   0.00000  -0.02424  -0.02434   1.90339
    A4        1.91750  -0.00261   0.00000  -0.01484  -0.01553   1.90197
    A5        1.92773   0.00000   0.00000  -0.01569  -0.01521   1.91252
    A6        1.89209   0.00026   0.00000  -0.00225  -0.00240   1.88968
    A7        1.88146  -0.00768   0.00000  -0.00817  -0.01050   1.87097
    A8        1.91750   0.00530   0.00000   0.01466   0.01524   1.93274
    A9        1.92773  -0.00024   0.00000  -0.00408  -0.00385   1.92388
   A10        1.91750   0.00330   0.00000   0.01914   0.01969   1.93719
   A11        1.92773   0.00040   0.00000  -0.02324  -0.02260   1.90513
   A12        1.89209  -0.00097   0.00000   0.00204   0.00186   1.89395
   A13        1.98968   0.00094   0.00000   0.02129   0.01971   2.00939
   A14        2.14675  -0.00105   0.00000  -0.01264  -0.01186   2.13489
   A15        2.14676   0.00010   0.00000  -0.00864  -0.00786   2.13890
   A16        2.06647   0.01614   0.00000   0.08192   0.07903   2.14550
   A17        2.10836   0.00096   0.00000  -0.00965  -0.00862   2.09974
   A18        2.10836  -0.01710   0.00000  -0.07227  -0.07118   2.03718
   A19        1.91229   0.00320   0.00000   0.03125   0.02503   1.93732
   A20        2.06907   0.00816   0.00000   0.05321   0.04990   2.11897
   A21        2.10706  -0.00480   0.00000  -0.02912  -0.02750   2.07955
   A22        2.10706  -0.00335   0.00000  -0.02409  -0.02249   2.08457
   A23        1.98968   0.00571   0.00000   0.02189   0.02187   2.01155
   A24        2.14676   0.00019   0.00000  -0.00037  -0.00040   2.14636
   A25        2.14675  -0.00590   0.00000  -0.02152  -0.02154   2.12522
   A26        1.91114  -0.00403   0.00000  -0.02353  -0.02333   1.88780
   A27        1.91012   0.00514   0.00000   0.02726   0.02687   1.93699
   A28        1.91047   0.00746   0.00000   0.03947   0.03912   1.94959
   A29        1.91012  -0.00184   0.00000  -0.01300  -0.01285   1.89727
   A30        1.91047  -0.00264   0.00000  -0.01601  -0.01579   1.89468
   A31        1.91148  -0.00409   0.00000  -0.01421  -0.01506   1.89642
   A32        1.91114  -0.00510   0.00000  -0.02689  -0.02690   1.88424
   A33        1.91012  -0.00104   0.00000  -0.00627  -0.00640   1.90372
   A34        1.91047   0.00561   0.00000   0.03047   0.03054   1.94101
   A35        1.91012   0.00157   0.00000   0.00359   0.00336   1.91348
   A36        1.91047   0.00045   0.00000   0.00434   0.00452   1.91499
   A37        1.91148  -0.00150   0.00000  -0.00526  -0.00530   1.90618
    D1        1.24185  -0.00323   0.00000  -0.04976  -0.04992   1.19193
    D2       -2.95217  -0.00079   0.00000  -0.02307  -0.02355  -2.97572
    D3       -0.86574   0.00122   0.00000  -0.01382  -0.01396  -0.87969
    D4       -2.95217  -0.00269   0.00000  -0.03392  -0.03349  -2.98566
    D5       -0.86300  -0.00025   0.00000  -0.00723  -0.00713  -0.87013
    D6        1.22343   0.00176   0.00000   0.00202   0.00247   1.22590
    D7       -0.86574  -0.00238   0.00000  -0.04234  -0.04202  -0.90776
    D8        1.22343   0.00006   0.00000  -0.01565  -0.01565   1.20778
    D9       -2.97333   0.00207   0.00000  -0.00640  -0.00605  -2.97938
   D10       -1.69321   0.00789   0.00000   0.07384   0.07498  -1.61824
   D11        1.44838   0.00589   0.00000   0.08652   0.08695   1.53533
   D12        2.50081   0.00324   0.00000   0.03905   0.03995   2.54075
   D13       -0.64079   0.00123   0.00000   0.05173   0.05192  -0.58887
   D14        0.41438   0.00457   0.00000   0.06106   0.06156   0.47594
   D15       -2.72722   0.00256   0.00000   0.07374   0.07353  -2.65368
   D16       -1.02936   0.00670   0.00000   0.02623   0.02657  -1.00278
   D17        2.11223   0.00435   0.00000   0.02321   0.02272   2.13495
   D18       -3.11852   0.00299   0.00000   0.00238   0.00301  -3.11551
   D19        0.02307   0.00064   0.00000  -0.00065  -0.00085   0.02222
   D20        1.07823   0.00184   0.00000   0.00229   0.00269   1.08093
   D21       -2.06336  -0.00051   0.00000  -0.00073  -0.00116  -2.06452
   D22        1.47478  -0.00244   0.00000  -0.02208  -0.02283   1.45195
   D23       -1.66681  -0.00352   0.00000  -0.06426  -0.06632  -1.73314
   D24       -1.66681  -0.00009   0.00000  -0.01906  -0.01896  -1.68577
   D25        1.47478  -0.00117   0.00000  -0.06124  -0.06246   1.41232
   D26       -1.49053   0.01189   0.00000   0.13680   0.13697  -1.35355
   D27        1.65107   0.01297   0.00000   0.17898   0.17901   1.83008
   D28        0.00000   0.00028   0.00000   0.01414   0.01295   0.01295
   D29        2.09376  -0.00129   0.00000   0.00053  -0.00102   2.09274
   D30       -2.09440   0.00141   0.00000   0.02397   0.02323  -2.07117
   D31        3.14159  -0.00083   0.00000  -0.02905  -0.02792   3.11367
   D32       -1.04783  -0.00240   0.00000  -0.04266  -0.04189  -1.08972
   D33        1.04719   0.00030   0.00000  -0.01922  -0.01764   1.02955
   D34        0.37516  -0.00860   0.00000  -0.14325  -0.14460   0.23056
   D35       -2.76643  -0.00813   0.00000  -0.12946  -0.13031  -2.89674
   D36        0.96393   0.00000   0.00000   0.04777   0.04739   1.01131
   D37       -2.17767   0.00200   0.00000   0.03509   0.03557  -2.14209
   D38       -2.17767  -0.00047   0.00000   0.03398   0.03305  -2.14461
   D39        0.96393   0.00153   0.00000   0.02130   0.02124   0.98517
   D40        0.00000   0.00055   0.00000  -0.00153  -0.00165  -0.00165
   D41        2.09376  -0.00128   0.00000  -0.01742  -0.01730   2.07646
   D42       -2.09440  -0.00032   0.00000  -0.00906  -0.00893  -2.10333
   D43        3.14159   0.00103   0.00000   0.01256   0.01236  -3.12924
   D44       -1.04783  -0.00080   0.00000  -0.00333  -0.00329  -1.05112
   D45        1.04719   0.00016   0.00000   0.00503   0.00508   1.05227
         Item               Value     Threshold  Converged?
 Maximum Force            0.065803     0.000450     NO 
 RMS     Force            0.010899     0.000300     NO 
 Maximum Displacement     0.316960     0.001800     NO 
 RMS     Displacement     0.065899     0.001200     NO 
 Predicted change in Energy=-2.360967D-02
 Lowest energy point so far.  Saving SCF results.
 GradGradGradGradGradGradGradGradGradGradGradGradGradGradGradGradGradGrad

 Leave Link  103 at Wed Jun  9 00:20:42 2021, MaxMem=  3355443200 cpu:         0.4
 (Enter /usr/local/gqt/g09/l202.exe)
                          Input orientation:                          
 ---------------------------------------------------------------------
 Center     Atomic      Atomic             Coordinates (Angstroms)
 Number     Number       Type             X           Y           Z
 ---------------------------------------------------------------------
      1          6           0       -2.005278    1.249290   -1.275621
      2          6           0       -3.526812    1.183324   -1.420287
      3          6           0       -4.083478    0.761973   -0.084959
      4          7           0       -3.595958   -0.464711    0.406120
      5          6           0       -2.346650   -0.583628    1.118597
      6          7           0       -1.283262   -0.547585    0.254789
      7          6           0       -1.439103   -0.139413   -1.085941
      8          8           0       -4.885255    1.430537    0.519570
      9          8           0       -1.127212   -0.851815   -2.006205
     10          6           0       -4.379662   -1.678337    0.254795
     11          6           0        0.023750   -0.954763    0.727537
     12          1           0       -1.553093    1.698307   -2.157655
     13          1           0       -1.756625    1.865512   -0.413425
     14          1           0       -3.927780    2.149928   -1.722801
     15          1           0       -3.802532    0.442904   -2.172907
     16          1           0       -5.296254   -1.426263   -0.272218
     17          1           0       -3.835442   -2.425182   -0.326757
     18          1           0       -4.643210   -2.112929    1.223112
     19          1           0       -0.071527   -1.240196    1.770217
     20          1           0        0.363006   -1.808981    0.143922
     21          1           0        0.747609   -0.144888    0.632433
 ---------------------------------------------------------------------
                    Distance matrix (angstroms):
                    1          2          3          4          5
     1  C    0.000000
     2  C    1.529819   0.000000
     3  C    2.444191   1.506823   0.000000
     4  N    2.880332   2.461008   1.408399   0.000000
     5  C    3.034534   3.310715   2.505147   1.443098   0.000000
     6  N    2.468243   3.291724   3.109917   2.319123   1.370495
     7  C    1.511631   2.493983   2.967689   2.642742   2.425068
     8  O    3.398504   2.381077   1.206350   2.295021   3.295483
     9  O    2.391525   3.200495   3.877500   3.473307   3.365016
    10  C    4.068276   3.423793   2.481587   1.452578   2.465295
    11  C    3.603810   4.668089   4.525114   3.666844   2.430939
    12  H    1.088151   2.168983   3.402299   3.927453   4.070723
    13  H    1.088550   2.147723   2.596138   3.079730   2.948476
    14  H    2.169593   1.089318   2.152485   3.388030   4.248040
    15  H    2.164602   1.091183   2.130789   2.741864   3.742640
    16  H    4.358431   3.355433   2.508838   2.067784   3.368168
    17  H    4.213263   3.783170   3.205924   2.106635   2.774323
    18  H    4.950440   4.370261   3.207711   2.116798   2.761135
    19  H    4.383384   5.290724   4.852433   3.857946   2.455988
    20  H    4.120302   5.150857   5.141343   4.189177   3.129491
    21  H    3.628056   4.924275   4.967540   4.361201   3.162798
                    6          7          8          9         10
     6  N    0.000000
     7  C    1.410124   0.000000
     8  O    4.117940   4.113195   0.000000
     9  O    2.286701   1.204856   5.070656   0.000000
    10  C    3.296407   3.579490   3.160828   4.046442   0.000000
    11  C    1.448297   2.468489   5.461798   2.967938   4.487436
    12  H    3.307073   2.130441   4.282819   2.589871   5.021069
    13  H    2.548259   2.138416   3.293632   3.212005   4.459340
    14  H    4.263909   3.440957   2.542147   4.115089   4.332517
    15  H    3.636138   2.665780   3.065476   2.976814   3.275131
    16  H    4.141729   4.146775   2.992851   4.551660   1.086933
    17  H    3.221364   3.397578   4.084721   3.553946   1.091859
    18  H    3.831083   4.415064   3.620733   4.937725   1.093602
    19  H    2.060226   3.352555   5.645256   3.940389   4.587864
    20  H    2.076923   2.747293   6.178983   2.785671   4.745762
    21  H    2.104570   2.781106   5.850116   3.313171   5.364978
                   11         12         13         14         15
    11  C    0.000000
    12  H    4.224873   0.000000
    13  H    3.524980   1.764007   0.000000
    14  H    5.590872   2.456053   2.551327   0.000000
    15  H    5.000648   2.576090   3.050463   1.769806   0.000000
    16  H    5.433623   5.227721   4.835773   4.094638   3.055750
    17  H    4.262279   5.056131   4.768548   4.784255   3.411051
    18  H    4.833989   5.958517   5.180600   5.230888   4.332662
    19  H    1.085233   5.124258   4.153706   6.210056   5.683436
    20  H    1.088756   4.611915   4.278478   6.129312   5.271659
    21  H    1.090374   4.058964   3.377383   5.715992   5.377659
                   16         17         18         19         20
    16  H    0.000000
    17  H    1.770533   0.000000
    18  H    1.770307   1.775411   0.000000
    19  H    5.612836   4.468618   4.686285   0.000000
    20  H    5.687430   4.269450   5.130227   1.776842   0.000000
    21  H    6.244085   5.208084   5.769143   1.779111   1.776448
                   21
    21  H    0.000000
 Stoichiometry    C7H10N2O2
 Framework group  C1[X(C7H10N2O2)]
 Deg. of freedom    57
 Full point group                 C1      NOp   1
 RotChk:  IX=0 Diff= 1.50D-02
 Largest Abelian subgroup         C1      NOp   1
 Largest concise Abelian subgroup C1      NOp   1
                         Standard orientation:                         
 ---------------------------------------------------------------------
 Center     Atomic      Atomic             Coordinates (Angstroms)
 Number     Number       Type             X           Y           Z
 ---------------------------------------------------------------------
      1          6           0       -0.212524    1.724116   -0.353747
      2          6           0        1.200685    1.528068    0.198298
      3          6           0        1.686110    0.186361   -0.286159
      4          7           0        0.875971   -0.908216    0.073235
      5          6           0       -0.298903   -1.292507   -0.671428
      6          7           0       -1.353275   -0.464445   -0.387049
      7          6           0       -1.167324    0.752237    0.301106
      8          8           0        2.693577    0.061841   -0.937914
      9          8           0       -1.744518    0.993141    1.330907
     10          6           0        1.233313   -1.743776    1.206429
     11          6           0       -2.687992   -0.858723   -0.787846
     12          1           0       -0.560411    2.738940   -0.171593
     13          1           0       -0.200633    1.555273   -1.429057
     14          1           0        1.860567    2.326673   -0.138449
     15          1           0        1.183204    1.529921    1.289339
     16          1           0        2.146083   -1.348332    1.644492
     17          1           0        0.447398   -1.731720    1.964287
     18          1           0        1.412431   -2.779535    0.904627
     19          1           0       -2.617363   -1.819987   -1.286558
     20          1           0       -3.312902   -0.951644    0.098857
     21          1           0       -3.129906   -0.125476   -1.463106
 ---------------------------------------------------------------------
 Rotational constants (GHZ):      1.7155415      0.9927172      0.8179939
 Leave Link  202 at Wed Jun  9 00:20:42 2021, MaxMem=  3355443200 cpu:         0.0
 (Enter /usr/local/gqt/g09/l301.exe)
 Standard basis: 6-311+G(d,p) (5D, 7F)
 Ernie: Thresh=  0.10000D-02 Tol=  0.10000D-05 Strict=F.
 There are   313 symmetry adapted cartesian basis functions of A   symmetry.
 There are   302 symmetry adapted basis functions of A   symmetry.
   302 basis functions,   476 primitive gaussians,   313 cartesian basis functions
    41 alpha electrons       41 beta electrons
       nuclear repulsion energy       640.2047686775 Hartrees.
 IExCor= 5547 DFT=T Ex+Corr=N12SX ExCW=0 ScaHFX=  0.250000
 ScaDFX=  1.000000  1.000000  1.000000  1.000000 ScalE2=  1.000000  1.000000
 IRadAn=      0 IRanWt=     -1 IRanGd=            0 ICorTp=0 IEmpDi=  4
  HFx wShort=  0.110000 wLong=  0.000000 cFull=  0.000000 cShort=  1.000000 cLong=  0.000000
  DFx wShort=  0.110000 wLong=  0.000000 cFull=  0.000000 cShort=  1.000000 cLong=  0.000000
 NAtoms=   21 NActive=   21 NUniq=   21 SFac= 1.00D+00 NAtFMM=   60 NAOKFM=F Big=F
 Integral buffers will be    131072 words long.
 Raffenetti 2 integral format.
 Two-electron integral symmetry is turned on.
 ------------------------------------------------------------------------------
 Polarizable Continuum Model (PCM)
 =================================
 Model                : PCM (using non-symmetric T matrix).
 Atomic radii         : UFF (Universal Force Field).
 Polarization charges : Total charges.
 Charge compensation  : None.
 Solution method      : On-the-fly selection.
 Cavity type          : Scaled VdW (van der Waals Surface) (Alpha=1.100).
 Cavity algorithm     : GePol (No added spheres)
                        Default sphere list used, NSphG=   21.
                        Lebedev-Laikov grids with approx.  5.0 points / Ang**2.
                        Smoothing algorithm: Karplus/York (Gamma=1.0000).
                        Polarization charges: spherical gaussians, with
[...]
 .00733875,0.00609228,0.00239778,-0.00019339,-0.00289410,0.00238514,-0.
 00311132,-0.00362155,-0.00030753,0.00130395,0.00115270,-0.00113572,-0.
 05951990,0.59003354,0.00040003,-0.00000313,0.00005521,-0.00313710,0.00
 257157,0.00112114,0.01071332,0.02297061,-0.02898045,0.03922570,0.03569
 063,-0.11816936,0.01408748,-0.00888408,-0.00325014,-0.00608960,0.00307
 218,0.00580059,0.00232753,0.00326981,-0.00053591,0.00808216,-0.0011844
 7,-0.00316905,-0.00157405,-0.00084236,-0.00010806,0.07193082,0.0142565
 0,0.56861392,-0.00094769,-0.00336837,0.00228850,-0.00023297,-0.0000647
 9,-0.00013837,-0.00229961,0.00115732,-0.00092344,0.00241183,-0.0001051
 4,0.00022795,-0.05276669,0.01078978,0.00893221,-0.15340456,0.05043943,
 -0.01230790,0.01140688,0.01197043,-0.00542190,0.00122950,-0.00017331,-
 0.00003199,-0.00366278,-0.00518355,0.00188426,0.00029908,-0.00024788,0
 .00016000,0.52585176,-0.00338420,-0.00143473,0.00267596,0.00017282,0.0
 0020993,-0.00014791,0.00265525,-0.00180811,0.00305746,-0.00798202,0.00
 306812,0.00343231,0.00399270,0.00729157,-0.00927292,0.04547619,-0.1242
 5518,0.01828902,0.02370585,-0.03623597,0.01201692,-0.00189869,0.000248
 85,-0.00082411,0.00835368,-0.00227406,-0.00159055,0.00002025,0.0012135
 7,-0.00059950,0.08097288,0.58786060,0.00092519,0.00283526,0.00276854,0
 .00065420,-0.00031025,0.00031424,0.00022584,0.00249550,-0.00105100,0.0
 0552106,0.00266850,0.00699294,0.01089251,-0.01386116,-0.00392139,-0.01
 009118,0.02329517,-0.08219927,-0.01344077,0.01093562,-0.00040609,0.000
 90232,-0.00117362,0.00039767,-0.00069345,0.00042781,-0.00413378,-0.000
 12170,0.00012789,0.00107714,-0.02902051,-0.00859163,0.60346668,-0.0863
 4483,-0.08312309,0.06063208,-0.01214510,-0.01827890,0.01328251,-0.0007
 3880,-0.00081109,-0.00598274,0.00117987,-0.00105053,0.00123650,-0.0024
 9303,-0.00019701,0.00052267,-0.00364500,0.00408187,-0.00078555,0.00842
 413,0.02106339,-0.01628890,-0.00178895,-0.00002468,0.00155809,0.001706
 51,0.00005263,0.00044524,0.00015003,-0.00003028,-0.00000547,0.00073911
 ,0.00107722,-0.00033728,0.09805925,-0.07797713,-0.20424454,0.11702425,
 -0.00476738,-0.00817627,0.00638848,-0.00026508,0.00015896,-0.00245230,
 -0.00014501,0.00016553,0.00000062,0.00063374,0.00059892,-0.00011217,0.
 00451974,-0.00206762,0.00041187,-0.00837645,-0.02092005,0.01418765,-0.
 00068230,-0.00015608,0.00049449,-0.00268739,0.00286352,-0.00218073,0.0
 0001410,0.00003329,-0.00003824,-0.00084311,-0.00053616,0.00042065,0.08
 468406,0.22107235,0.05742608,0.11960994,-0.13438466,-0.00862832,-0.014
 45995,0.01056631,-0.00122424,-0.00119817,-0.00378737,0.00041263,-0.000
 19830,0.00089965,-0.00093134,-0.00044057,0.00015526,-0.00033463,0.0010
 7821,0.00061953,0.00513499,0.00260578,-0.00483385,-0.00134694,0.000119
 21,0.00106836,-0.00044926,-0.00139298,0.00081931,0.00002267,-0.0000013
 0,0.00014853,0.00032735,0.00018631,0.00017589,-0.06016000,-0.12685857,
 0.14184795,-0.07292478,0.03875878,0.07933864,0.00765520,-0.01310367,-0
 .02363396,0.00120080,-0.00079354,-0.00089487,0.00030712,-0.00012125,0.
 00020914,0.00028712,0.00091579,-0.00008505,-0.00012693,-0.00062121,-0.
 00152106,-0.00947735,0.00692413,0.02540021,0.00059726,0.00020223,-0.00
 038137,-0.00288583,0.00105371,-0.00456549,-0.00005969,0.00003333,0.000
 20152,-0.00021618,-0.00024010,-0.00062505,-0.00376062,0.00496922,0.008
 98346,0.08283834,0.03646278,-0.08522042,-0.08847671,0.00184024,-0.0074
 5520,-0.01235072,0.00029081,0.00018186,-0.00127843,-0.00024716,0.00139
 347,0.00045750,0.00113811,-0.00148400,-0.00075995,-0.00022678,-0.00042
 591,0.00250454,0.00678936,-0.00831648,-0.02146059,0.00008087,-0.000174
 16,-0.00014920,0.00044690,0.00002196,0.00204446,-0.00013114,0.00004196
 ,0.00022699,0.00032080,0.00020796,0.00071932,-0.00791180,0.01059303,0.
 02068191,-0.03646425,0.09116306,0.07391970,-0.08604478,-0.24324627,0.0
 0367582,-0.00671018,-0.01155893,0.00202024,0.00087127,0.00033665,-0.00
 062503,-0.00050760,-0.00011913,-0.00053101,0.00040397,0.00071682,0.001
 27103,0.00066839,-0.00147103,0.00029970,0.00148136,0.00817798,-0.00086
 259,-0.00013702,0.00006558,-0.00190459,-0.00100168,-0.00103911,0.00004
 859,-0.00015677,-0.00006195,-0.00003932,-0.00017577,-0.00009928,0.0053
 4555,-0.00742021,-0.01452836,-0.08020846,0.09897966,0.26351097,-0.0155
 2669,0.01539976,-0.01151808,-0.12982173,0.10712309,-0.07984298,0.01040
 331,-0.01658364,0.01166167,-0.00220138,-0.00218181,0.00347819,-0.00227
 444,0.00013432,0.00033971,0.00080291,0.00149866,-0.00071832,-0.0000730
 1,-0.00543259,-0.00228897,0.00139642,0.00003982,0.00045693,-0.00185579
 ,0.00117054,0.00057727,0.00072960,-0.00046049,0.00075863,0.00014405,0.
 00000299,-0.00004761,0.00054618,0.00038762,0.00034820,0.00043138,-0.00
 002453,0.00000667,0.14333164,-0.01171274,0.01235581,-0.00936214,0.1028
 2362,-0.17884273,0.09792611,0.01127959,-0.01243986,0.00667586,-0.00181
 085,-0.00061241,0.00244271,-0.00152899,0.00020492,-0.00034843,0.000424
 04,0.00118290,-0.00012585,-0.00095164,-0.00339762,-0.00223926,0.000102
 23,0.00207044,-0.00163847,-0.00142596,0.00080171,0.00062547,0.00072104
 ,-0.00004270,0.00038972,0.00002031,0.00015314,0.00002670,0.00014843,0.
 00114533,0.00013357,0.00055271,0.00014538,0.00014557,-0.10831434,0.191
 06338,-0.00802613,0.00934390,-0.00657974,-0.07548715,0.09547413,-0.116
 31183,-0.01190452,0.01800551,-0.01528597,0.00411922,0.00190347,-0.0022
 8061,0.00066692,-0.00015194,0.00033133,-0.00012424,0.00004532,0.000258
 39,-0.00023594,-0.00270054,-0.00089549,-0.00227016,-0.00284500,0.00192
 339,-0.00092402,0.00048864,0.00017573,-0.00090717,0.00050810,-0.000307
 05,0.00000768,-0.00000062,0.00003496,0.00054123,-0.00000379,0.00108430
 ,0.00018959,0.00023373,-0.00025238,0.08247163,-0.10543985,0.12657997,0
 .00790888,-0.01769378,-0.02051303,-0.07797656,0.06580504,0.06871795,-0
 .00968222,0.01699194,0.01229774,-0.00030033,-0.00073934,-0.00096485,0.
 00062751,-0.00036564,0.00045968,0.00031620,0.00028217,0.00018484,0.000
 97757,-0.00066012,-0.00124792,-0.00189836,-0.00456020,0.00015224,0.000
 75523,-0.00033258,-0.00001996,-0.00013073,-0.00044124,-0.00030759,-0.0
 0010006,0.00019761,0.00013434,0.00046690,0.00014343,0.00054869,-0.0039
 7058,-0.00235516,-0.00241519,-0.00577398,0.00993040,0.01155642,0.08866
 127,0.00431864,-0.00804163,-0.00963076,0.06162773,-0.16151117,-0.11240
 623,-0.00422159,0.01487174,0.01016262,0.00158217,-0.00220540,-0.000211
 39,-0.00072508,0.00045206,0.00124208,-0.00057672,-0.00001998,-0.000855
 11,0.00201307,0.00063548,0.00056484,-0.00219460,-0.00225252,-0.0011689
 4,-0.00075077,-0.00005341,0.00004904,-0.00015379,-0.00032033,-0.000347
 97,0.00006003,-0.00003279,-0.00018326,0.00013367,-0.00030142,0.0000784
 2,-0.00220459,-0.00059691,-0.00036949,0.00725700,-0.01368560,-0.015027
 55,-0.06617866,0.17301323,0.00221668,-0.00945360,-0.01123027,0.0653705
 3,-0.11585082,-0.16188014,0.00848608,-0.01614236,-0.01480464,-0.000073
 82,0.00205195,0.00048450,0.00072053,0.00005722,-0.00155973,-0.00031552
 ,-0.00004731,0.00127969,0.00092388,-0.00099375,0.00010781,-0.00012317,
 0.00215411,0.00024301,-0.00026838,-0.00004799,-0.00021330,0.00025707,0
 .00068163,0.00034411,-0.00012243,0.00015279,0.00005321,-0.00006338,0.0
 0007379,0.00015925,-0.00242235,-0.00127026,-0.00045531,-0.00586917,0.0
 1062407,0.01175927,-0.06869239,0.12807345,0.17582775,0.00007735,0.0000
 1779,0.00006650,-0.00009451,-0.00003767,0.00016776,-0.00284533,0.00205
 726,-0.00295157,-0.02036094,-0.01629107,-0.00569540,0.00071626,-0.0021
 8176,-0.00033560,-0.00186508,-0.00022919,0.00188894,0.00065809,0.00109
 047,-0.00031534,0.00213990,0.00050459,0.00045890,-0.00066627,-0.000398
 75,0.00006024,-0.14634491,-0.09451231,-0.09179647,0.00019897,-0.000214
 41,0.00029957,-0.00003058,-0.00002597,0.00002486,0.00004657,0.00007306
 ,-0.00001783,0.00004511,-0.00001593,0.00007184,-0.00001565,-0.00002095
 ,0.00002635,0.16374469,0.00012676,0.00001691,-0.00001368,0.00005321,0.
 00012641,0.00028988,-0.00372378,0.00075399,-0.00124072,-0.00989325,-0.
 00715119,-0.00136407,0.00129810,-0.00124691,-0.00091907,-0.00109987,-0
 .00054172,0.00102640,0.00037562,0.00085677,-0.00032335,0.00207065,0.00
 023845,-0.00041091,-0.00040667,-0.00025166,0.00009477,-0.09435844,-0.1
 3904054,-0.08684135,0.00016613,-0.00012718,0.00016353,0.00001658,-0.00
 001055,0.00002397,0.00001498,0.00002932,-0.00000947,0.00002848,-0.0000
 1106,0.00005113,-0.00002483,-0.00003338,0.00003649,0.10864441,0.146218
 90,-0.00012486,-0.00008836,-0.00002532,0.00029035,-0.00074875,-0.00058
 146,0.00153954,0.00044155,0.00112931,0.01816891,0.01690610,0.01174098,
 -0.00104828,0.00214160,0.00041549,0.00083985,-0.00067316,-0.00056040,-
 0.00032725,-0.00019914,0.00015484,-0.00048895,0.00124801,-0.00086646,0
 .00021060,0.00004579,-0.00001361,-0.09622159,-0.09260566,-0.13775749,-
 0.00005404,0.00004518,-0.00021850,0.00000942,0.00000371,-0.00002625,-0
 .00003805,-0.00006419,0.00004033,-0.00005180,-0.00002544,0.00001638,0.
 00016210,0.00009862,-0.00016810,0.09592429,0.09363640,0.14383346,0.000
 07288,0.00010946,-0.00005463,0.00104048,-0.00081127,0.00055417,-0.0065
 7563,0.00018060,0.00137007,0.00691376,-0.01732421,0.02355555,-0.000959
 21,-0.00248532,0.00188340,-0.00007503,-0.00009204,0.00038498,0.0002259
 1,0.00001706,0.00004588,0.00161183,0.00125922,-0.00163951,-0.00008238,
 0.00005039,-0.00003633,-0.11601987,0.08248449,-0.10678127,0.00007757,0
 .00004404,-0.00011027,-0.00001947,0.,-0.00000957,-0.00000640,0.0000103
 5,-0.00000748,-0.00025136,-0.00021317,0.00027236,0.00003442,0.00006377
 ,-0.00004499,-0.00668341,0.01096296,-0.00985997,0.12673702,0.00005793,
 0.00006734,0.00002303,0.00053398,-0.00026470,0.00049184,-0.00209723,-0
 .00013465,0.00102892,0.00408460,-0.01052352,0.01190728,0.00413531,-0.0
 0061363,-0.00101990,-0.00024223,0.00071048,-0.00040161,0.00026299,-0.0
 0007111,-0.00008924,-0.00030757,0.00063907,0.00006626,0.00003294,0.000
 16862,0.00001503,0.07347267,-0.13531605,0.10797880,-0.00004341,-0.0000
 4949,-0.00006929,-0.00002698,-0.00000402,-0.00000719,-0.00000023,0.000
 02318,-0.00001851,-0.00014588,-0.00008840,0.00013986,-0.00000131,-0.00
 002016,0.00001083,-0.00879699,0.01268698,-0.01386280,-0.08001150,0.143
 06999,-0.00006738,-0.00009828,-0.00004573,-0.00075020,0.00064321,-0.00
 042721,0.00341265,0.00070758,-0.00093118,-0.00575238,0.01234046,-0.018
 24399,-0.00443841,0.00214581,0.00126575,0.00028265,-0.00123784,0.00038
 449,-0.00041764,0.00018141,0.00010167,0.00026818,0.00018040,0.00069231
 ,-0.00005125,-0.00027177,0.00001588,-0.09453653,0.10653521,-0.18580592
 ,0.00003958,-0.00001668,0.00003376,0.00004335,0.00000496,0.00002238,0.
 00001180,-0.00002113,0.00002068,0.00025264,0.00014467,-0.00020823,-0.0
 0000258,-0.00002304,0.00001467,-0.00681785,0.00916867,-0.00990924,0.10
 172091,-0.12206477,0.20029011,-0.00000437,-0.00000993,0.00004767,0.000
 02981,-0.00023408,0.00003205,-0.00127607,0.00161721,-0.00177488,-0.017
 96275,0.01513136,0.01266035,-0.00047717,0.00063433,0.00354114,-0.00211
 965,-0.00211093,0.00032106,0.00019924,0.00111987,-0.00071899,0.0012022
 7,-0.00051690,-0.00003559,-0.00064596,-0.00051640,0.00032338,-0.121911
 85,0.10445437,0.06233443,0.00020572,-0.00034716,0.00007505,0.00001486,
 -0.00001995,0.00001045,0.00002386,0.00000814,-0.00000963,0.00000424,-0
 .00005983,0.00001982,0.00001330,0.00003479,-0.00008446,0.01143177,-0.0
 1414861,-0.00899272,-0.00607923,0.00915164,0.00676958,0.13749916,-0.00
 002067,-0.00003926,0.00013729,-0.00027483,-0.00034363,-0.00051146,0.00
 011081,0.00053589,0.00071412,-0.01210112,0.01406852,0.01017542,0.00127
 121,-0.00021324,0.00157976,-0.00130023,-0.00031405,-0.00035218,0.00014
 940,0.00024553,-0.00020118,-0.00034945,-0.00039369,0.00150234,-0.00012
 460,-0.00003802,0.00008882,0.11086277,-0.20463276,-0.09191224,0.000024
 95,-0.00016506,-0.00011076,-0.00002255,-0.00002132,-0.00002883,-0.0000
 0951,-0.00001809,-0.00000709,0.00003225,-0.00000600,-0.00003764,0.0000
 4659,0.00001784,-0.00004849,0.01028712,-0.01255738,-0.00624822,0.00569
 236,-0.01033447,-0.00822753,-0.11422881,0.21414624,-0.00003366,0.00000
 815,-0.00010000,-0.00001247,0.00034296,0.00024932,0.00388426,-0.001316
 50,0.00083691,0.01408349,-0.01084492,-0.01150302,-0.00129214,0.0005679
 5,-0.00188716,0.00134762,0.00058796,-0.00011642,-0.00031218,-0.0006995
 4,0.00035457,-0.00212999,-0.00011109,0.00030895,0.00038036,0.00021539,
 -0.00013860,0.06085605,-0.08498017,-0.09880281,-0.00009935,0.00022495,
 0.00004057,0.00001326,0.00001081,-0.00000426,-0.00000778,-0.00001274,0
 .00000389,-0.00000570,0.00005541,-0.00001640,-0.00003835,-0.00003612,0
 .00004642,0.00899876,-0.01333236,-0.00723044,-0.01121552,0.01587524,0.
 01270346,-0.07450894,0.09350153,0.10522872,0.00095563,0.00106399,-0.00
 078923,0.00011035,-0.00006608,0.00009855,0.00029738,0.00006834,-0.0000
 4151,-0.00014608,0.00019616,0.00024156,-0.00042650,0.00228889,-0.00216
 916,0.00195196,0.03236436,-0.01169774,-0.00719182,0.00042617,0.0013415
 9,-0.00004958,-0.00007317,0.00009643,0.00186318,-0.00173599,0.00057287
 ,0.00008336,-0.00011670,-0.00000806,-0.07612818,-0.09242950,0.03620769
 ,-0.00036119,0.00031836,-0.00009968,0.00004730,-0.00005421,0.00004186,
 -0.00002617,-0.00001608,-0.00000191,-0.00000374,-0.00001741,0.00001230
 ,0.00001998,-0.00000133,0.00000421,-0.00002653,-0.00003932,0.00005799,
 0.00004651,-0.00000736,0.00000151,0.08648705,-0.00055975,-0.00070208,0
 .00047220,-0.00007608,-0.00003820,-0.00010060,-0.00041373,0.00000164,0
 .00027185,0.00005268,0.00095103,-0.00118944,-0.00534643,0.00032899,0.0
 0287537,-0.00178655,-0.02049301,0.00691340,0.00301344,-0.00070024,0.00
 009309,-0.00011434,0.00007892,-0.00027283,0.00055466,0.00040751,0.0002
 2302,0.00005727,0.00004106,0.00000822,-0.07827882,-0.27278464,0.090815
 75,0.00027999,-0.00018656,0.00003769,0.00000169,0.00000605,-0.00000529
 ,0.00004350,0.00002585,0.00000703,0.00000376,0.00003113,-0.00001777,-0
 .00000296,0.00000386,-0.00001681,0.00005331,0.00002349,-0.00005636,-0.
 00001407,0.00002750,-0.00001386,0.08402642,0.29506504,0.00013702,0.000
 27747,0.00009538,0.00002801,0.00001107,0.00002230,0.00010120,-0.000036
 96,-0.00004273,-0.00005349,-0.00040017,0.00021764,0.00278303,-0.000445
 50,-0.00021697,0.00035048,0.00446826,-0.00331134,-0.00028527,0.0004587
 9,0.00025246,0.00003301,0.00000492,0.00007296,-0.00035122,0.00021817,0
 .00067274,-0.00004078,-0.00003072,-0.00006258,0.03092199,0.09307241,-0
 .08821883,-0.00004069,0.00003735,-0.00000008,-0.00001290,0.00002720,-0
 .00002476,-0.00001067,0.00000003,-0.00000075,0.00000726,-0.00001345,0.
 00001012,-0.00002503,-0.00000828,0.00001206,-0.00001774,0.00000646,0.0
 0000418,-0.00000449,-0.00000357,0.00000790,-0.03476198,-0.10251744,0.0
 8854146,-0.00004959,0.00002029,-0.00032345,-0.00001479,0.00007850,0.00
 000834,0.00051478,-0.00104150,0.00088909,-0.00274049,0.00051985,-0.001
 72154,-0.00048442,0.00354462,0.00169536,-0.01961445,0.00615451,0.02410
 282,-0.00117587,-0.00240255,0.00138117,-0.00080174,0.00037674,-0.00032
 763,0.00123908,0.00051120,-0.00062742,0.00014910,0.00019322,-0.0003778
 3,-0.10229588,0.01587598,0.10683149,-0.00000225,0.00003498,-0.00005865
 ,0.00004051,-0.00009831,0.00000738,0.00000526,0.00001432,-0.00002188,0
 .00002471,-0.00000885,0.00000053,-0.00011247,-0.00006426,0.00005459,0.
 00004313,0.00000339,-0.00001441,-0.00007944,0.00000707,0.00002607,-0.0
 0341193,0.00161865,0.00703843,0.11834243,0.00008440,0.00026622,0.00047
 512,-0.00000973,-0.00012884,-0.00001861,-0.00041913,0.00038532,-0.0004
 1568,0.00135128,0.00013899,0.00017890,-0.00133798,-0.00205956,0.000324
 49,0.01336492,-0.00576565,-0.01649474,0.00318858,0.00115232,-0.0013794
 1,0.00032694,-0.00009713,0.00006496,-0.00170278,-0.00037030,0.00008093
 ,-0.00004723,0.00000710,0.00022911,0.01331739,-0.05204185,-0.02502993,
 -0.00000659,-0.00001675,0.00004388,-0.00005667,0.00004530,-0.00001356,
 0.00002220,0.00000483,0.00001200,-0.00000243,0.00000550,-0.00000402,0.
 00004842,0.00003885,-0.00003356,0.00000597,0.00001550,-0.00002061,0.00
 000985,0.00000185,-0.00000842,-0.01172132,0.00713306,0.02438521,-0.022
 64446,0.05311186,-0.00024620,-0.00037553,-0.00028100,-0.00004408,0.000
 09487,-0.00000027,0.00001033,0.00002819,-0.00010025,-0.00052073,-0.000
 50326,0.00004982,0.00077835,0.00066864,-0.00002855,-0.00443284,0.00137
 407,0.00997941,0.00125388,0.00129345,0.00011996,0.00007870,-0.00000775
 ,0.00007582,-0.00130297,0.00137099,0.00024797,-0.00002487,-0.00008581,
 -0.00007493,0.11351759,-0.03135438,-0.27100561,0.00003517,-0.00004123,
 0.00000065,0.00003341,-0.00001749,-0.00000814,-0.00001758,-0.00002687,
 -0.00002082,-0.00001654,-0.00000013,-0.00002055,-0.00000836,-0.0000059
 3,0.00001688,-0.00000789,-0.00000885,0.00002333,0.00002306,0.00000041,
 -0.00000550,0.00226692,-0.00236831,-0.00743271,-0.12100848,0.03096266,
 0.28542179,-0.00013519,0.00022158,0.00015499,0.00010382,0.00007039,0.0
 0003594,0.00095014,-0.00059230,0.00096387,-0.00231718,0.00171852,0.000
 63372,0.00066544,0.00039198,-0.00269886,-0.02512352,-0.00487520,-0.017
 47846,-0.00279407,-0.00415555,0.00139559,-0.00079962,0.00008408,-0.000
 30793,0.00242849,0.00071427,0.00025119,0.00014981,0.00042547,-0.000144
 19,-0.15050985,-0.07605136,-0.10818141,0.00004296,0.00008451,0.0000032
 4,-0.00004709,0.00005192,-0.00001539,-0.00003557,0.00003284,-0.0000135
 9,0.00006623,-0.00003787,0.00006609,-0.00005954,-0.00003684,0.00000366
 ,0.00002155,-0.00002281,-0.00001071,-0.00011425,-0.00004542,0.00006469
 ,-0.00409097,-0.00311263,-0.00579616,0.01042434,0.00622838,0.00963310,
 0.17117409,0.00019690,-0.00032619,-0.00092028,-0.00015169,-0.00000644,
 -0.00006871,-0.00037404,0.00021023,-0.00016199,0.00079704,-0.00024059,
 -0.00074553,-0.00099209,-0.00019937,0.00226897,0.01783625,0.00821797,0
 .01611631,0.00201669,0.00109388,0.00055016,0.00022340,-0.00001278,0.00
 001931,-0.00046746,-0.00105252,0.00101859,-0.00003739,-0.00022133,-0.0
 0001080,-0.08093106,-0.10850852,-0.08560179,-0.00005434,0.00001041,-0.
 00001301,0.00018846,-0.00016138,0.00002720,0.00000306,-0.00002730,-0.0
 0000590,-0.00004564,0.00004770,-0.00003996,0.00000485,0.00000110,-0.00
 000087,0.00000351,0.00001555,-0.00001435,0.00004511,0.00003359,-0.0000
 3464,-0.01447423,-0.00922041,-0.01951125,-0.00269338,-0.00182662,-0.00
 099774,0.07890605,0.11217301,0.00012163,0.00012773,-0.00008764,0.00007
 400,-0.00001186,-0.00002833,0.00030058,-0.00036487,0.00050992,-0.00074
 161,0.00067197,-0.00041043,0.00085539,-0.00046176,-0.00058746,-0.00193
 738,0.00243649,0.00114262,-0.00255538,-0.00107053,0.00073726,-0.000279
 73,0.00008914,-0.00011982,0.00171051,-0.00058204,0.00013086,0.00009850
 ,0.00009475,-0.00007494,-0.11014787,-0.08057924,-0.16410184,-0.0000010
 5,0.00004863,-0.00000255,0.00002861,-0.00001392,-0.00000825,0.00001933
 ,0.00001642,-0.00000446,-0.00000287,0.00000439,0.00000223,-0.00002458,
 -0.00002205,-0.00000246,-0.00000217,-0.00000141,-0.00000118,-0.0000283
 6,-0.00001050,0.00002389,0.00862580,0.00484110,0.00940153,-0.01755399,
 -0.01333875,-0.01695727,0.12144064,0.08812631,0.17043832\\-0.00002821,
 0.00001331,0.00000271,0.00000144,0.00000149,0.00001531,0.00000464,0.00
 000469,-0.00000297,-0.00000114,0.00000263,-0.00000163,0.00003839,-0.00
 001179,-0.00001336,-0.00000488,-0.00005695,0.00003468,0.00005169,0.000
 02674,-0.00001241,-0.00000157,0.00000483,-0.00000175,-0.00003109,0.000
 00255,-0.00000117,-0.00000151,-0.00000838,-0.00001139,-0.00005555,0.00
 003548,-0.00000879,0.00000327,-0.00000609,-0.00000114,0.00000867,-0.00
 000391,-0.00000130,0.00000073,-0.00000651,-0.00000703,-0.00000201,0.00
 000123,-0.00000528,0.00000005,0.00000510,0.00000402,0.00000315,0.00000
 874,0.00000137,-0.00000400,0.00000078,0.00000546,0.00000621,-0.0000014
 4,0.00000242,0.00000472,-0.00000388,0.00000333,0.00000700,-0.00000862,
 -0.00000108\\\@


 WE LEARN WISDOM FROM FAILURE MUCH MORE THAN FROM SUCCESS.
 WE DISCOVER WHAT WILL DO BY FINDING OUT WHAT WILL NOT DO...
 AND HE WHO NEVER MADE A MISTAKE NEVER MADE A DISCOVERY
 Job cpu time:       0 days  3 hours 10 minutes 11.5 seconds.
 File lengths (MBytes):  RWF=    234 Int=      0 D2E=      0 Chk=     13 Scr=      1
 Normal termination of Gaussian 09 at Wed Jun  9 01:05:29 2021.
