 Entering Gaussian System, Link 0=g09
 Input=NHC26-.gjf
 Output=NHC26-.log
 Initial command:
 /usr/local/gqt/g09/l1.exe "/usr/local/gqt/lixogaussian/Gau-24033.inp" -scrdir="/usr/local/gqt/lixogaussian/"
 Entering Link 1 = /usr/local/gqt/g09/l1.exe PID=     24035.
  
 Copyright (c) 1988,1990,1992,1993,1995,1998,2003,2009,2013,
            Gaussian, Inc.  All Rights Reserved.
  
 This is part of the Gaussian(R) 09 program.  It is based on
 the Gaussian(R) 03 system (copyright 2003, Gaussian, Inc.),
 the Gaussian(R) 98 system (copyright 1998, Gaussian, Inc.),
 the Gaussian(R) 94 system (copyright 1995, Gaussian, Inc.),
 the Gaussian 92(TM) system (copyright 1992, Gaussian, Inc.),
 the Gaussian 90(TM) system (copyright 1990, Gaussian, Inc.),
 the Gaussian 88(TM) system (copyright 1988, Gaussian, Inc.),
 the Gaussian 86(TM) system (copyright 1986, Carnegie Mellon
 University), and the Gaussian 82(TM) system (copyright 1983,
 Carnegie Mellon University). Gaussian is a federally registered
 trademark of Gaussian, Inc.
  
 This software contains proprietary and confidential information,
 including trade secrets, belonging to Gaussian, Inc.
  
 This software is provided under written license and may be
 used, copied, transmitted, or stored only in accord with that
 written license.
  
 The following legend is applicable only to US Government
 contracts under FAR:
  
                    RESTRICTED RIGHTS LEGEND
  
 Use, reproduction and disclosure by the US Government is
 subject to restrictions as set forth in subparagraphs (a)
 and (c) of the Commercial Computer Software - Restricted
 Rights clause in FAR 52.227-19.
  
 Gaussian, Inc.
 340 Quinnipiac St., Bldg. 40, Wallingford CT 06492
  
  
 ---------------------------------------------------------------
 Warning -- This program may not be used in any manner that
 competes with the business of Gaussian, Inc. or will provide
 assistance to any competitor of Gaussian, Inc.  The licensee
 of this program is prohibited from giving any competitor of
 Gaussian, Inc. access to this program.  By using this program,
 the user acknowledges that Gaussian, Inc. is engaged in the
 business of creating and licensing software in the field of
 computational chemistry and represents and warrants to the
 licensee that it is not a competitor of Gaussian, Inc. and that
 it will not use this program in any manner prohibited above.
 ---------------------------------------------------------------
  

 Cite this work as:
 Gaussian 09, Revision D.01,
 M. J. Frisch, G. W. Trucks, H. B. Schlegel, G. E. Scuseria, 
 M. A. Robb, J. R. Cheeseman, G. Scalmani, V. Barone, B. Mennucci, 
 G. A. Petersson, H. Nakatsuji, M. Caricato, X. Li, H. P. Hratchian, 
 A. F. Izmaylov, J. Bloino, G. Zheng, J. L. Sonnenberg, M. Hada, 
 M. Ehara, K. Toyota, R. Fukuda, J. Hasegawa, M. Ishida, T. Nakajima, 
 Y. Honda, O. Kitao, H. Nakai, T. Vreven, J. A. Montgomery, Jr., 
 J. E. Peralta, F. Ogliaro, M. Bearpark, J. J. Heyd, E. Brothers, 
 K. N. Kudin, V. N. Staroverov, T. Keith, R. Kobayashi, J. Normand, 
 K. Raghavachari, A. Rendell, J. C. Burant, S. S. Iyengar, J. Tomasi, 
 M. Cossi, N. Rega, J. M. Millam, M. Klene, J. E. Knox, J. B. Cross, 
 V. Bakken, C. Adamo, J. Jaramillo, R. Gomperts, R. E. Stratmann, 
 O. Yazyev, A. J. Austin, R. Cammi, C. Pomelli, J. W. Ochterski, 
 R. L. Martin, K. Morokuma, V. G. Zakrzewski, G. A. Voth, 
 P. Salvador, J. J. Dannenberg, S. Dapprich, A. D. Daniels, 
 O. Farkas, J. B. Foresman, J. V. Ortiz, J. Cioslowski, 
 and D. J. Fox, Gaussian, Inc., Wallingford CT, 2013.
 
 ******************************************
 Gaussian 09:  ES64L-G09RevD.01 24-Apr-2013
                23-Jun-2021 
 ******************************************
 %nprocshared=16
 Will use up to   16 processors via shared memory.
 %mem=25GB
 %chk=NHC26-.chk
 ----------------------------------------------------------
 #p opt freq n12sx/6-311+g(d,p) scrf=(iefpcm,solvent=water)
 ----------------------------------------------------------
 1/14=-1,18=20,19=15,26=3,38=1/1,3;
 2/9=110,12=2,17=6,18=5,40=1/2;
 3/5=4,6=6,7=111,11=2,16=1,25=1,30=1,70=2201,71=1,72=1,74=-69/1,2,3;
 4//1;
 5/5=2,38=5,53=1/2;
 6/7=2,8=2,9=2,10=2,28=1/1;
 7//1,2,3,16;
 1/14=-1,18=20,19=15,26=3/3(2);
 2/9=110/2;
 99//99;
 2/9=110/2;
 3/5=4,6=6,7=111,11=2,16=1,25=1,30=1,70=2205,71=1,72=1,74=-69/1,2,3;
 4/5=5,16=3,69=1/1;
 5/5=2,38=5,53=1/2;
 7//1,2,3,16;
 1/14=-1,18=20,19=15,26=3/3(-5);
 2/9=110/2;
 6/7=2,8=2,9=2,10=2,19=2,28=1/1;
 99/9=1/99;
 Leave Link    1 at Wed Jun 23 05:24:58 2021, MaxMem=  3355443200 cpu:         0.7
 (Enter /usr/local/gqt/g09/l101.exe)
 -----
 TITLE
 -----
 Symbolic Z-matrix:
 Charge =  0 Multiplicity = 1
 7                     0.97623   0.82854   0.00002 
 7                    -0.308     1.05634   0.00005 
 6                    -1.0291   -0.10294   0.00005 
 6                    -0.13045  -1.16571   0.00014 
 7                     1.05433  -0.4854    0.00012 
 6                    -0.77423   2.42813   0.00003 
 6                     2.33309  -2.62917  -0.06207 
 6                     2.37163  -1.12123   0.00029 
 6                    -3.12545  -1.48928  -0.00022 
 6                    -2.52036  -0.0969    0.00002 
 1                    -1.85636   2.43022  -0.0003 
 1                    -0.41347   2.93758   0.88756 
 1                    -0.41295   2.93769  -0.88722 
 1                     3.35531  -3.0003   -0.0569 
 1                     1.81227  -3.05319   0.79228 
 1                     1.84728  -2.9813   -0.96814 
 1                     2.91443  -0.71216  -0.84815 
 1                     2.87969  -0.78357   0.9001 
 1                    -4.21145  -1.42481  -0.00022 
 1                    -2.81603  -2.05168  -0.87798 
 1                    -2.81604  -2.05198   0.87736 
 1                    -2.88209   0.4537    0.87112 
 1                    -2.88207   0.45399  -0.87091 
 
 NAtoms=     23 NQM=       23 NQMF=       0 NMMI=      0 NMMIF=      0
                NMic=       0 NMicF=      0.
                    Isotopes and Nuclear Properties:
 (Nuclear quadrupole moments (NQMom) in fm**2, nuclear magnetic moments (NMagM)
  in nuclear magnetons)

  Atom         1           2           3           4           5           6           7           8           9          10
 IAtWgt=          14          14          12          12          14          12          12          12          12          12
 AtmWgt=  14.0030740  14.0030740  12.0000000  12.0000000  14.0030740  12.0000000  12.0000000  12.0000000  12.0000000  12.0000000
 NucSpn=           2           2           0           0           2           0           0           0           0           0
 AtZEff=   0.0000000   0.0000000   0.0000000   0.0000000   0.0000000   0.0000000   0.0000000   0.0000000   0.0000000   0.0000000
 NQMom=    2.0440000   2.0440000   0.0000000   0.0000000   2.0440000   0.0000000   0.0000000   0.0000000   0.0000000   0.0000000
 NMagM=    0.4037610   0.4037610   0.0000000   0.0000000   0.4037610   0.0000000   0.0000000   0.0000000   0.0000000   0.0000000
 AtZNuc=   7.0000000   7.0000000   6.0000000   6.0000000   7.0000000   6.0000000   6.0000000   6.0000000   6.0000000   6.0000000

  Atom        11          12          13          14          15          16          17          18          19          20
 IAtWgt=           1           1           1           1           1           1           1           1           1           1
 AtmWgt=   1.0078250   1.0078250   1.0078250   1.0078250   1.0078250   1.0078250   1.0078250   1.0078250   1.0078250   1.0078250
 NucSpn=           1           1           1           1           1           1           1           1           1           1
 AtZEff=   0.0000000   0.0000000   0.0000000   0.0000000   0.0000000   0.0000000   0.0000000   0.0000000   0.0000000   0.0000000
 NQMom=    0.0000000   0.0000000   0.0000000   0.0000000   0.0000000   0.0000000   0.0000000   0.0000000   0.0000000   0.0000000
 NMagM=    2.7928460   2.7928460   2.7928460   2.7928460   2.7928460   2.7928460   2.7928460   2.7928460   2.7928460   2.7928460
 AtZNuc=   1.0000000   1.0000000   1.0000000   1.0000000   1.0000000   1.0000000   1.0000000   1.0000000   1.0000000   1.0000000

  Atom        21          22          23
 IAtWgt=           1           1           1
 AtmWgt=   1.0078250   1.0078250   1.0078250
 NucSpn=           1           1           1
 AtZEff=   0.0000000   0.0000000   0.0000000
 NQMom=    0.0000000   0.0000000   0.0000000
 NMagM=    2.7928460   2.7928460   2.7928460
 AtZNuc=   1.0000000   1.0000000   1.0000000
 Leave Link  101 at Wed Jun 23 05:24:58 2021, MaxMem=  3355443200 cpu:         6.8
 (Enter /usr/local/gqt/g09/l103.exe)

 GradGradGradGradGradGradGradGradGradGradGradGradGradGradGradGradGradGrad
 Berny optimization.
 Initialization pass.
                           ----------------------------
                           !    Initial Parameters    !
                           ! (Angstroms and Degrees)  !
 --------------------------                            --------------------------
 ! Name  Definition              Value          Derivative Info.                !
 --------------------------------------------------------------------------------
 ! R1    R(1,2)                  1.3043         estimate D2E/DX2                !
 ! R2    R(1,5)                  1.3163         estimate D2E/DX2                !
 ! R3    R(2,3)                  1.3653         estimate D2E/DX2                !
 ! R4    R(2,6)                  1.4489         estimate D2E/DX2                !
 ! R5    R(3,4)                  1.3918         estimate D2E/DX2                !
 ! R6    R(3,10)                 1.4913         estimate D2E/DX2                !
 ! R7    R(4,5)                  1.3662         estimate D2E/DX2                !
 ! R8    R(5,8)                  1.4627         estimate D2E/DX2                !
 ! R9    R(6,11)                 1.0821         estimate D2E/DX2                !
 ! R10   R(6,12)                 1.0851         estimate D2E/DX2                !
 ! R11   R(6,13)                 1.0851         estimate D2E/DX2                !
 ! R12   R(7,8)                  1.5097         estimate D2E/DX2                !
 ! R13   R(7,14)                 1.0875         estimate D2E/DX2                !
 ! R14   R(7,15)                 1.0867         estimate D2E/DX2                !
 ! R15   R(7,16)                 1.0867         estimate D2E/DX2                !
 ! R16   R(8,17)                 1.0871         estimate D2E/DX2                !
 ! R17   R(8,18)                 1.0871         estimate D2E/DX2                !
 ! R18   R(9,10)                 1.5182         estimate D2E/DX2                !
 ! R19   R(9,19)                 1.0879         estimate D2E/DX2                !
 ! R20   R(9,20)                 1.0874         estimate D2E/DX2                !
 ! R21   R(9,21)                 1.0874         estimate D2E/DX2                !
 ! R22   R(10,22)                1.0922         estimate D2E/DX2                !
 ! R23   R(10,23)                1.0922         estimate D2E/DX2                !
 ! A1    A(2,1,5)              103.4604         estimate D2E/DX2                !
 ! A2    A(1,2,3)              111.8239         estimate D2E/DX2                !
 ! A3    A(1,2,6)              118.8301         estimate D2E/DX2                !
 ! A4    A(3,2,6)              129.346          estimate D2E/DX2                !
 ! A5    A(2,3,4)              107.9            estimate D2E/DX2                !
 ! A6    A(2,3,10)             121.6505         estimate D2E/DX2                !
 ! A7    A(4,3,10)             130.4495         estimate D2E/DX2                !
 ! A8    A(3,4,5)              100.3526         estimate D2E/DX2                !
 ! A9    A(1,5,4)              116.4631         estimate D2E/DX2                !
 ! A10   A(1,5,8)              119.167          estimate D2E/DX2                !
 ! A11   A(4,5,8)              124.3699         estimate D2E/DX2                !
 ! A12   A(2,6,11)             108.882          estimate D2E/DX2                !
 ! A13   A(2,6,12)             109.7263         estimate D2E/DX2                !
 ! A14   A(2,6,13)             109.725          estimate D2E/DX2                !
 ! A15   A(11,6,12)            109.3783         estimate D2E/DX2                !
 ! A16   A(11,6,13)            109.3784         estimate D2E/DX2                !
 ! A17   A(12,6,13)            109.7331         estimate D2E/DX2                !
 ! A18   A(8,7,14)             108.4616         estimate D2E/DX2                !
 ! A19   A(8,7,15)             111.684          estimate D2E/DX2                !
 ! A20   A(8,7,16)             111.6845         estimate D2E/DX2                !
 ! A21   A(14,7,15)            108.2755         estimate D2E/DX2                !
 ! A22   A(14,7,16)            108.2755         estimate D2E/DX2                !
 ! A23   A(15,7,16)            108.3489         estimate D2E/DX2                !
 ! A24   A(5,8,7)              114.279          estimate D2E/DX2                !
 ! A25   A(5,8,17)             106.6193         estimate D2E/DX2                !
 ! A26   A(5,8,18)             106.6166         estimate D2E/DX2                !
 ! A27   A(7,8,17)             110.8761         estimate D2E/DX2                !
 ! A28   A(7,8,18)             110.8765         estimate D2E/DX2                !
 ! A29   A(17,8,18)            107.2035         estimate D2E/DX2                !
 ! A30   A(10,9,19)            110.0911         estimate D2E/DX2                !
 ! A31   A(10,9,20)            111.1646         estimate D2E/DX2                !
 ! A32   A(10,9,21)            111.1649         estimate D2E/DX2                !
 ! A33   A(19,9,20)            108.3421         estimate D2E/DX2                !
 ! A34   A(19,9,21)            108.3422         estimate D2E/DX2                !
 ! A35   A(20,9,21)            107.6282         estimate D2E/DX2                !
 ! A36   A(3,10,9)             113.2563         estimate D2E/DX2                !
 ! A37   A(3,10,22)            109.4652         estimate D2E/DX2                !
 ! A38   A(3,10,23)            109.4661         estimate D2E/DX2                !
 ! A39   A(9,10,22)            109.2979         estimate D2E/DX2                !
 ! A40   A(9,10,23)            109.2979         estimate D2E/DX2                !
 ! A41   A(22,10,23)           105.7857         estimate D2E/DX2                !
 ! D1    D(5,1,2,3)             -0.0058         estimate D2E/DX2                !
 ! D2    D(5,1,2,6)            179.997          estimate D2E/DX2                !
 ! D3    D(2,1,5,4)              0.004          estimate D2E/DX2                !
 ! D4    D(2,1,5,8)           -179.9927         estimate D2E/DX2                !
 ! D5    D(1,2,3,4)              0.0056         estimate D2E/DX2                !
 ! D6    D(1,2,3,10)          -179.9974         estimate D2E/DX2                !
 ! D7    D(6,2,3,4)           -179.9975         estimate D2E/DX2                !
 ! D8    D(6,2,3,10)            -0.0006         estimate D2E/DX2                !
 ! D9    D(1,2,6,11)           179.9803         estimate D2E/DX2                !
 ! D10   D(1,2,6,12)           -60.3382         estimate D2E/DX2                !
 ! D11   D(1,2,6,13)            60.2996         estimate D2E/DX2                !
 ! D12   D(3,2,6,11)            -0.0163         estimate D2E/DX2                !
 ! D13   D(3,2,6,12)           119.6651         estimate D2E/DX2                !
 ! D14   D(3,2,6,13)          -119.697          estimate D2E/DX2                !
 ! D15   D(2,3,4,5)             -0.0028         estimate D2E/DX2                !
 ! D16   D(10,3,4,5)          -179.9994         estimate D2E/DX2                !
 ! D17   D(2,3,10,9)           179.9904         estimate D2E/DX2                !
 ! D18   D(2,3,10,22)          -57.7738         estimate D2E/DX2                !
 ! D19   D(2,3,10,23)           57.7539         estimate D2E/DX2                !
 ! D20   D(4,3,10,9)            -0.0134         estimate D2E/DX2                !
 ! D21   D(4,3,10,22)          122.2224         estimate D2E/DX2                !
 ! D22   D(4,3,10,23)         -122.2499         estimate D2E/DX2                !
 ! D23   D(3,4,5,1)             -0.0008         estimate D2E/DX2                !
 ! D24   D(3,4,5,8)            179.9958         estimate D2E/DX2                !
 ! D25   D(1,5,8,7)           -177.3984         estimate D2E/DX2                !
 ! D26   D(1,5,8,17)           -54.5373         estimate D2E/DX2                !
 ! D27   D(1,5,8,18)            59.7421         estimate D2E/DX2                !
 ! D28   D(4,5,8,7)              2.6052         estimate D2E/DX2                !
 ! D29   D(4,5,8,17)           125.4662         estimate D2E/DX2                !
 ! D30   D(4,5,8,18)          -120.2544         estimate D2E/DX2                !
 ! D31   D(14,7,8,5)          -179.9971         estimate D2E/DX2                !
 ! D32   D(14,7,8,17)           59.4828         estimate D2E/DX2                !
 ! D33   D(14,7,8,18)          -59.4802         estimate D2E/DX2                !
 ! D34   D(15,7,8,5)           -60.7535         estimate D2E/DX2                !
 ! D35   D(15,7,8,17)          178.7263         estimate D2E/DX2                !
 ! D36   D(15,7,8,18)           59.7633         estimate D2E/DX2                !
 ! D37   D(16,7,8,5)            60.759          estimate D2E/DX2                !
 ! D38   D(16,7,8,17)          -59.7611         estimate D2E/DX2                !
 ! D39   D(16,7,8,18)         -178.7241         estimate D2E/DX2                !
 ! D40   D(19,9,10,3)          179.9994         estimate D2E/DX2                !
 ! D41   D(19,9,10,22)          57.6703         estimate D2E/DX2                !
 ! D42   D(19,9,10,23)         -57.6705         estimate D2E/DX2                !
 ! D43   D(20,9,10,3)          -59.939          estimate D2E/DX2                !
 ! D44   D(20,9,10,22)         177.7319         estimate D2E/DX2                !
 ! D45   D(20,9,10,23)          62.3911         estimate D2E/DX2                !
 ! D46   D(21,9,10,3)           59.9375         estimate D2E/DX2                !
 ! D47   D(21,9,10,22)         -62.3916         estimate D2E/DX2                !
 ! D48   D(21,9,10,23)        -177.7324         estimate D2E/DX2                !
 --------------------------------------------------------------------------------
 Trust Radius=3.00D-01 FncErr=1.00D-07 GrdErr=1.00D-06
 Number of steps in this run=    122 maximum allowed number of steps=    138.
 GradGradGradGradGradGradGradGradGradGradGradGradGradGradGradGradGradGrad

 Leave Link  103 at Wed Jun 23 05:24:59 2021, MaxMem=  3355443200 cpu:         0.1
 (Enter /usr/local/gqt/g09/l202.exe)
                          Input orientation:                          
 ---------------------------------------------------------------------
 Center     Atomic      Atomic             Coordinates (Angstroms)
 Number     Number       Type             X           Y           Z
 ---------------------------------------------------------------------
      1          7           0        0.976227    0.828539    0.000021
      2          7           0       -0.307998    1.056342    0.000052
      3          6           0       -1.029103   -0.102942    0.000046
      4          6           0       -0.130447   -1.165706    0.000138
      5          7           0        1.054327   -0.485401    0.000124
      6          6           0       -0.774227    2.428130    0.000025
      7          6           0        2.333090   -2.629167   -0.062072
      8          6           0        2.371628   -1.121226    0.000288
      9          6           0       -3.125448   -1.489281   -0.000217
     10          6           0       -2.520355   -0.096898    0.000020
     11          1           0       -1.856358    2.430220   -0.000295
     12          1           0       -0.413472    2.937575    0.887556
     13          1           0       -0.412947    2.937692   -0.887222
     14          1           0        3.355308   -3.000296   -0.056898
     15          1           0        1.812265   -3.053193    0.792283
     16          1           0        1.847280   -2.981297   -0.968144
     17          1           0        2.914429   -0.712163   -0.848152
     18          1           0        2.879689   -0.783568    0.900103
     19          1           0       -4.211446   -1.424810   -0.000215
     20          1           0       -2.816031   -2.051683   -0.877983
     21          1           0       -2.816044   -2.051982    0.877361
     22          1           0       -2.882091    0.453704    0.871124
     23          1           0       -2.882074    0.453993   -0.870906
 ---------------------------------------------------------------------
                    Distance matrix (angstroms):
                    1          2          3          4          5
     1  N    0.000000
     2  N    1.304273   0.000000
     3  C    2.211110   1.365259   0.000000
     4  C    2.280732   2.229130   1.391779   0.000000
     5  N    1.316259   2.057401   2.118243   1.366201   0.000000
     6  C    2.371240   1.448852   2.543872   3.651042   3.439807
     7  C    3.714924   4.534554   4.205949   2.866112   2.496965
     8  C    2.397650   3.452854   3.549912   2.502470   1.462722
     9  C    4.711266   3.797133   2.513284   3.012430   4.298639
    10  C    3.616977   2.494892   1.491264   2.618017   3.595732
    11  H    3.254062   2.070014   2.664819   3.988666   4.119822
    12  H    2.677128   2.082745   3.226673   4.207675   3.828673
    13  H    2.676851   2.082726   3.226817   4.207742   3.828556
    14  H    4.508131   5.466202   5.255565   3.939475   3.409173
    15  H    4.049010   4.691634   4.171929   2.822097   2.792050
    16  H    4.026279   4.678157   4.182810   2.854005   2.792098
    17  H    2.617210   3.772412   4.079465   3.193206   2.056933
    18  H    2.651830   3.789025   4.068416   3.164947   2.056894
    19  H    5.655929   4.625259   3.445960   4.089216   5.348912
    20  H    4.842292   4.089131   2.785972   2.961151   4.266613
    21  H    4.842360   4.089211   2.785964   2.960986   4.266555
    22  H    3.973152   2.783504   2.121838   3.309479   4.139559
    23  H    3.973070   2.783390   2.121847   3.309621   4.139614
                    6          7          8          9         10
     6  C    0.000000
     7  C    5.935952   0.000000
     8  C    4.742819   1.509722   0.000000
     9  C    4.568845   5.576630   5.509384   0.000000
    10  C    3.069972   5.474684   4.998074   1.518179   0.000000
    11  H    1.082133   6.569070   5.521651   4.119840   2.612894
    12  H    1.085076   6.279651   5.001789   5.266878   3.799303
    13  H    1.085073   6.261909   5.001634   5.267118   3.799619
    14  H    6.820858   1.087517   2.121745   6.654816   6.554111
    15  H    6.112489   1.086728   2.161629   5.239741   5.304617
    16  H    6.088641   1.086726   2.161635   5.281195   5.322906
    17  H    4.918031   2.151926   1.087114   6.148416   5.534873
    18  H    4.947348   2.151926   1.087109   6.113124   5.517440
    19  H    5.163296   6.654716   6.590070   1.087910   2.150149
    20  H    5.000859   5.245249   5.343119   1.087432   2.163215
    21  H    5.001014   5.265857   5.342986   1.087431   2.163218
    22  H    3.016664   6.129687   5.553406   2.143280   1.092171
    23  H    3.016415   6.112121   5.553528   2.143279   1.092169
                   11         12         13         14         15
    11  H    0.000000
    12  H    1.768505   0.000000
    13  H    1.768503   1.774778   0.000000
    14  H    7.526963   7.096056   7.081588   0.000000
    15  H    6.644908   6.391579   6.607799   1.762069   0.000000
    16  H    6.628588   6.602095   6.336371   1.762067   1.762242
    17  H    5.775278   5.235283   4.939068   2.460897   3.063693
    18  H    5.793901   4.969102   5.280507   2.460883   2.510422
    19  H    4.517488   5.851764   5.852077   7.729239   6.290054
    20  H    4.666772   5.812238   5.537938   6.297577   5.021348
    21  H    4.667056   5.537882   5.812527   6.313298   4.736128
    22  H    2.391258   3.501994   3.919011   7.190027   5.860164
    23  H    2.390717   3.918464   3.502230   7.176326   6.091254
                   16         17         18         19         20
    16  H    0.000000
    17  H    2.510413   0.000000
    18  H    3.063695   1.750057   0.000000
    19  H    6.329905   7.211446   7.176766   0.000000
    20  H    4.755920   5.885013   6.100077   1.763698   0.000000
    21  H    5.100598   6.132767   5.835304   1.763698   1.755344
    22  H    6.127731   6.157499   5.893199   2.460738   3.056256
    23  H    5.846149   5.912688   6.153531   2.460738   2.506556
                   21         22         23
    21  H    0.000000
    22  H    2.506564   0.000000
    23  H    3.056257   1.742030   0.000000
 Stoichiometry    C7H13N3
 Framework group  C1[X(C7H13N3)]
 Deg. of freedom    63
 Full point group                 C1      NOp   1
 Largest Abelian subgroup         C1      NOp   1
 Largest concise Abelian subgroup C1      NOp   1
                         Standard orientation:                         
 ---------------------------------------------------------------------
 Center     Atomic      Atomic             Coordinates (Angstroms)
 Number     Number       Type             X           Y           Z
 ---------------------------------------------------------------------
      1          7           0        0.573738   -1.473444   -0.003697
      2          7           0       -0.693988   -1.166917    0.002582
      3          6           0       -0.889481    0.184263   -0.002716
      4          6           0        0.360001    0.797230   -0.013432
      5          7           0        1.172352   -0.301220   -0.013119
      6          6           0       -1.671331   -2.236424    0.013759
      7          6           0        3.204027    1.149748    0.029617
      8          6           0        2.634048   -0.247273   -0.022519
      9          6           0       -2.253606    2.295130   -0.004237
     10          6           0       -2.257886    0.776973    0.002860
     11          1           0       -2.663395   -1.804218    0.018091
     12          1           0       -1.550691   -2.852068   -0.871576
     13          1           0       -1.539358   -2.843842    0.903146
     14          1           0        4.289218    1.079589    0.018116
     15          1           0        2.891801    1.742979   -0.825701
     16          1           0        2.905844    1.671549    0.935037
     17          1           0        2.972370   -0.835643    0.826701
     18          1           0        2.958456   -0.764715   -0.921863
     19          1           0       -3.274238    2.671745    0.000216
     20          1           0       -1.739189    2.690381    0.868494
     21          1           0       -1.749860    2.682211   -0.886799
     22          1           0       -2.815453    0.413552   -0.863097
     23          1           0       -2.804856    0.421666    0.878882
 ---------------------------------------------------------------------
 Rotational constants (GHZ):      1.9175333      0.9917776      0.6671583
 Leave Link  202 at Wed Jun 23 05:24:59 2021, MaxMem=  3355443200 cpu:         0.0
 (Enter /usr/local/gqt/g09/l301.exe)
 Standard basis: 6-311+G(d,p) (5D, 7F)
 Ernie: Thresh=  0.10000D-02 Tol=  0.10000D-05 Strict=F.
 There are   308 symmetry adapted cartesian basis functions of A   symmetry.
 There are   298 symmetry adapted basis functions of A   symmetry.
   298 basis functions,   464 primitive gaussians,   308 cartesian basis functions
    38 alpha electrons       38 beta electrons
       nuclear repulsion energy       543.0447018992 Hartrees.
 IExCor= 5547 DFT=T Ex+Corr=N12SX ExCW=0 ScaHFX=  0.250000
 ScaDFX=  1.000000  1.000000  1.000000  1.000000 ScalE2=  1.000000  1.000000
 IRadAn=      0 IRanWt=     -1 IRanGd=            0 ICorTp=0 IEmpDi=  4
  HFx wShort=  0.110000 wLong=  0.000000 cFull=  0.000000 cShort=  1.000000 cLong=  0.000000
  DFx wShort=  0.110000 wLong=  0.000000 cFull=  0.000000 cShort=  1.000000 cLong=  0.000000
 NAtoms=   23 NActive=   23 NUniq=   23 SFac= 1.00D+00 NAtFMM=   60 NAOKFM=F Big=F
 Integral buffers will be    131072 words long.
 Raffenetti 2 integral format.
 Two-electron integral symmetry is turned on.
 ------------------------------------------------------------------------------
 Polarizable Continuum Model (PCM)
 =================================
 Model                : PCM (using non-symmetric T matrix).
 Atomic radii         : UFF (Universal Force Field).
 Polarization charges : Total charges.
 Charge compensation  : None.
 Solution method      : On-the-fly selection.
 Cavity type          : Scaled VdW (van der Waals Surface) (Alpha=1.100).
 Cavity algorithm     : GePol (No added spheres)
                        Default sphere list used, NSphG=   23.
                        Lebedev-Laikov grids with approx.  5.0 points / Ang**2.
                        Smoothing algorithm: Karplus/York (Gamma=1.0000).
                        Polarization charges: spherical gaussians, with
                                              point-specific exponents (IZeta= 3).
                        Self-potential: point-specific (ISelfS= 7).
                        Self-field    : sphere-specific E.n sum rule (ISelfD= 2).
 1st derivatives      : Analytical E(r).r(x)/FMM algorithm (CHGder, D1EAlg=3).
                        Cavity 1st derivative terms included.
 Solvent              : Water, Eps=  78.355300 Eps(inf)=   1.777849
 ------------------------------------------------------------------------------
 GePol: Number of generator spheres                  =      23
 GePol: Total number of spheres                      =      23
 GePol: Number of exposed spheres                    =      23 (100.00%)
 GePol: Number of points                             =    1757
 GePol: Average weight of points                     =       0.13
 GePol: Minimum weight of points                     =   0.91D-09
 GePol: Maximum weight of points                     =    0.20577
 GePol: Number of points with low weight             =     116
 GePol: Fraction of low-weight points (<1% of avg)   =       6.60%
 GePol: Cavity surface area                          =    229.815 Ang**2
 GePol: Cavity volume                                =    227.863 Ang**3
 Leave Link  301 at Wed Jun 23 05:24:59 2021, MaxMem=  3355443200 cpu:         0.7
 (Enter /usr/local/gqt/g09/l302.exe)
 NPDir=0 NMtPBC=     1 NCelOv=     1 NCel=       1 NClECP=     1 NCelD=      1
         NCelK=      1 NCelE2=     1 NClLst=     1 CellRange=     0.0.
 One-electron integrals computed using PRISM.
 NBasis=   298 RedAO= T EigKep=  2.40D-06  NBF=   298
 NBsUse=   298 1.00D-06 EigRej= -1.00D+00 NBFU=   298
 Precomputing XC quadrature grid using
 IXCGrd= 4 IRadAn=           0 IRanWt=          -1 IRanGd=           0 AccXCQ= 0.00D+00.
 Generated NRdTot=       0 NPtTot=           0 NUsed=           0 NTot=          32
 NSgBfM=   308   308   308   308   308 MxSgAt=    23 MxSgA2=    23.
 Leave Link  302 at Wed Jun 23 05:24:59 2021, MaxMem=  3355443200 cpu:         4.4
 (Enter /usr/local/gqt/g09/l303.exe)
 DipDrv:  MaxL=1.
 Leave Link  303 at Wed Jun 23 05:24:59 2021, MaxMem=  3355443200 cpu:         0.6
 (Enter /usr/local/gqt/g09/l401.exe)
 ExpMin= 4.38D-02 ExpMax= 6.29D+03 ExpMxC= 9.49D+02 IAcc=2 IRadAn=         4 AccDes= 0.00D+00
 Harris functional with IExCor= 5547 and IRadAn=       4 diagonalized for initial guess.
 HarFok:  IExCor= 5547 AccDes= 0.00D+00 IRadAn=         4 IDoV= 1 UseB2=F ITyADJ=14
 ICtDFT=  3500011 ScaDFX=  1.000000  1.000000  1.000000  1.000000
 FoFCou: FMM=F IPFlag=           0 FMFlag=      100000 FMFlg1=           0
         NFxFlg=           0 DoJE=T BraDBF=F KetDBF=T FulRan=T
         wScrn=  0.000000 ICntrl=     500 IOpCl=  0 I1Cent=   200000004 NGrid=           0
         NMat0=    1 NMatS0=      1 NMatT0=    0 NMatD0=    1 NMtDS0=    0 NMtDT0=    0
 Petite list used in FoFCou.
 Harris En= -424.892959872605    
 JPrj=0 DoOrth=F DoCkMO=F.
 Leave Link  401 at Wed Jun 23 05:25:00 2021, MaxMem=  3355443200 cpu:        13.3
 (Enter /usr/local/gqt/g09/l502.exe)
 Closed shell SCF:
 Using DIIS extrapolation, IDIIS=  1040.
 Integral symmetry usage will be decided dynamically.
 Keep R1 ints in memory in canonical form, NReq=1999898186.
 IVT=      310374 IEndB=      310374 NGot=  3355443200 MDV=  1370296675
 LenX=  1370296675 LenY=  1370201370
 Requested convergence on RMS density matrix=1.00D-08 within 128 cycles.
 Requested convergence on MAX density matrix=1.00D-06.
 Requested convergence on             energy=1.00D-06.
 No special actions if energy rises.
 FoFCou: FMM=F IPFlag=           0 FMFlag=           0 FMFlg1=           0
         NFxFlg=           0 DoJE=F BraDBF=F KetDBF=F FulRan=T
         wScrn=  0.000000 ICntrl=     600 IOpCl=  0 I1Cent=           0 NGrid=           0
         NMat0=    1 NMatS0=  44551 NMatT0=    0 NMatD0=    1 NMtDS0=    0 NMtDT0=    0
 Symmetry not used in FoFCou.

 Cycle   1  Pass 1  IDiag  1:
 Inv3:  Mode=1 IEnd=     9261147.
 Iteration    1 A*A^-1 deviation from unit magnitude is 5.00D-15 for   1750.
 Iteration    1 A*A^-1 deviation from orthogonality  is 3.63D-15 for   1724   1402.
 Iteration    1 A^-1*A deviation from unit magnitude is 5.00D-15 for   1750.
 Iteration    1 A^-1*A deviation from orthogonality  is 1.19D-10 for   1350   1291.
 Iteration    2 A*A^-1 deviation from unit magnitude is 7.11D-15 for    759.
 Iteration    2 A*A^-1 deviation from orthogonality  is 3.29D-15 for   1469    500.
 Iteration    2 A^-1*A deviation from unit magnitude is 1.11D-15 for    245.
 Iteration    2 A^-1*A deviation from orthogonality  is 4.43D-16 for   1208    256.
 E= -438.329533965920    
 DIIS: error= 7.16D-02 at cycle   1 NSaved=   1.
 NSaved= 1 IEnMin= 1 EnMin= -438.329533965920     IErMin= 1 ErrMin= 7.16D-02
 ErrMax= 7.16D-02  0.00D+00 EMaxC= 1.00D-01 BMatC= 1.25D+00 BMatP= 1.25D+00
 IDIUse=3 WtCom= 2.84D-01 WtEn= 7.16D-01
 Coeff-Com:  0.100D+01
 Coeff-En:   0.100D+01
 Coeff:      0.100D+01
 Gap=     0.200 Goal=   None    Shift=    0.000
 GapD=    0.200 DampG=1.000 DampE=0.500 DampFc=0.5000 IDamp=-1.
 Damping current iteration by 5.00D-01
 RMSDP=1.47D-02 MaxDP=1.51D+00              OVMax= 4.01D-01

 Cycle   2  Pass 1  IDiag  1:
 E= -438.343936456132     Delta-E=       -0.014402490213 Rises=F Damp=T
 DIIS: error= 3.58D-02 at cycle   2 NSaved=   2.
 NSaved= 2 IEnMin= 2 EnMin= -438.343936456132     IErMin= 2 ErrMin= 3.58D-02
 ErrMax= 3.58D-02  0.00D+00 EMaxC= 1.00D-01 BMatC= 2.87D-01 BMatP= 1.25D+00
 IDIUse=3 WtCom= 6.42D-01 WtEn= 3.58D-01
 Coeff-Com: -0.818D-01 0.108D+01
 Coeff-En:   0.479D+00 0.521D+00
 Coeff:      0.119D+00 0.881D+00
 Gap=     0.144 Goal=   None    Shift=    0.000
 RMSDP=7.62D-03 MaxDP=7.84D-01 DE=-1.44D-02 OVMax= 6.03D-01

 Cycle   3  Pass 1  IDiag  1:
 E= -438.435744515369     Delta-E=       -0.091808059237 Rises=F Damp=F
 DIIS: error= 4.20D-02 at cycle   3 NSaved=   3.
 NSaved= 3 IEnMin= 3 EnMin= -438.435744515369     IErMin= 2 ErrMin= 3.58D-02
 ErrMax= 4.20D-02  0.00D+00 EMaxC= 1.00D-01 BMatC= 1.97D-01 BMatP= 2.87D-01
 IDIUse=3 WtCom= 5.80D-01 WtEn= 4.20D-01
 Coeff-Com: -0.224D+00 0.604D+00 0.621D+00
 Coeff-En:   0.000D+00 0.370D+00 0.630D+00
 Coeff:     -0.130D+00 0.505D+00 0.625D+00
 Gap=     0.204 Goal=   None    Shift=    0.000
 RMSDP=5.64D-03 MaxDP=3.86D-01 DE=-9.18D-02 OVMax= 3.17D-01

 Cycle   4  Pass 1  IDiag  1:
 E= -438.570496936622     Delta-E=       -0.134752421253 Rises=F Damp=F
 DIIS: error= 2.48D-02 at cycle   4 NSaved=   4.
 NSaved= 4 IEnMin= 4 EnMin= -438.570496936622     IErMin= 4 ErrMin= 2.48D-02
 ErrMax= 2.48D-02  0.00D+00 EMaxC= 1.00D-01 BMatC= 6.09D-02 BMatP= 1.97D-01
 IDIUse=3 WtCom= 7.52D-01 WtEn= 2.48D-01
 Coeff-Com: -0.101D+00 0.251D+00 0.429D+00 0.420D+00
 Coeff-En:   0.000D+00 0.000D+00 0.275D+00 0.725D+00
 Coeff:     -0.758D-01 0.189D+00 0.391D+00 0.496D+00
 Gap=     0.165 Goal=   None    Shift=    0.000
 RMSDP=2.27D-03 MaxDP=1.64D-01 DE=-1.35D-01 OVMax= 1.58D-01

 Cycle   5  Pass 1  IDiag  1:
 E= -438.623699517678     Delta-E=       -0.053202581056 Rises=F Damp=F
 DIIS: error= 6.50D-03 at cycle   5 NSaved=   5.
 NSaved= 5 IEnMin= 5 EnMin= -438.623699517678     IErMin= 5 ErrMin= 6.50D-03
 ErrMax= 6.50D-03  0.00D+00 EMaxC= 1.00D-01 BMatC= 4.80D-03 BMatP= 6.09D-02
 IDIUse=3 WtCom= 9.35D-01 WtEn= 6.50D-02
 Coeff-Com: -0.174D-03 0.480D-02 0.698D-01 0.267D+00 0.659D+00
 Coeff-En:   0.000D+00 0.000D+00 0.000D+00 0.601D-01 0.940D+00
 Coeff:     -0.163D-03 0.449D-02 0.652D-01 0.254D+00 0.677D+00
 Gap=     0.169 Goal=   None    Shift=    0.000
 RMSDP=5.41D-04 MaxDP=5.09D-02 DE=-5.32D-02 OVMax= 2.60D-02

 Cycle   6  Pass 1  IDiag  1:
 E= -438.627207465014     Delta-E=       -0.003507947336 Rises=F Damp=F
 DIIS: error= 1.39D-03 at cycle   6 NSaved=   6.
 NSaved= 6 IEnMin= 6 EnMin= -438.627207465014     IErMin= 6 ErrMin= 1.39D-03
 ErrMax= 1.39D-03  0.00D+00 EMaxC= 1.00D-01 BMatC= 4.90D-04 BMatP= 4.80D-03
 IDIUse=3 WtCom= 9.86D-01 WtEn= 1.39D-02
 Coeff-Com:  0.119D-01-0.263D-01-0.161D-01 0.964D-01 0.420D+00 0.514D+00
 Coeff-En:   0.000D+00 0.000D+00 0.000D+00 0.000D+00 0.371D-01 0.963D+00
 Coeff:      0.117D-01-0.259D-01-0.159D-01 0.951D-01 0.415D+00 0.520D+00
 Gap=     0.168 Goal=   None    Shift=    0.000
 RMSDP=1.64D-04 MaxDP=1.14D-02 DE=-3.51D-03 OVMax= 5.94D-03

 Cycle   7  Pass 1  IDiag  1:
 E= -438.627605742280     Delta-E=       -0.000398277266 Rises=F Damp=F
 DIIS: error= 2.83D-04 at cycle   7 NSaved=   7.
 NSaved= 7 IEnMin= 7 EnMin= -438.627605742280     IErMin= 7 ErrMin= 2.83D-04
 ErrMax= 2.83D-04  0.00D+00 EMaxC= 1.00D-01 BMatC= 1.37D-05 BMatP= 4.90D-04
 IDIUse=3 WtCom= 9.97D-01 WtEn= 2.83D-03
 Coeff-Com:  0.576D-02-0.126D-01-0.939D-02 0.390D-01 0.185D+00 0.268D+00
 Coeff-Com:  0.524D+00
 Coeff-En:   0.000D+00 0.000D+00 0.000D+00 0.000D+00 0.000D+00 0.000D+00
 Coeff-En:   0.100D+01
 Coeff:      0.574D-02-0.126D-01-0.936D-02 0.389D-01 0.185D+00 0.268D+00
 Coeff:      0.525D+00
 Gap=     0.168 Goal=   None    Shift=    0.000
 RMSDP=2.80D-05 MaxDP=1.74D-03 DE=-3.98D-04 OVMax= 2.03D-03

 Cycle   8  Pass 1  IDiag  1:
 E= -438.627613645127     Delta-E=       -0.000007902847 Rises=F Damp=F
 DIIS: error= 1.48D-04 at cycle   8 NSaved=   8.
 NSaved= 8 IEnMin= 8 EnMin= -438.627613645127     IErMin= 8 ErrMin= 1.48D-04
 ErrMax= 1.48D-04  0.00D+00 EMaxC= 1.00D-01 BMatC= 3.92D-06 BMatP= 1.37D-05
 IDIUse=3 WtCom= 9.99D-01 WtEn= 1.48D-03
 Coeff-Com:  0.868D-03-0.169D-02-0.156D-02 0.416D-02 0.254D-01 0.611D-01
 Coeff-Com:  0.364D+00 0.548D+00
 Coeff-En:   0.000D+00 0.000D+00 0.000D+00 0.000D+00 0.000D+00 0.000D+00
 Coeff-En:   0.254D+00 0.746D+00
 Coeff:      0.867D-03-0.168D-02-0.156D-02 0.415D-02 0.253D-01 0.610D-01
 Coeff:      0.364D+00 0.548D+00
 Gap=     0.168 Goal=   None    Shift=    0.000
 RMSDP=1.76D-05 MaxDP=2.14D-03 DE=-7.90D-06 OVMax= 7.78D-04

 Cycle   9  Pass 1  IDiag  1:
 E= -438.627616783831     Delta-E=       -0.000003138704 Rises=F Damp=F
 DIIS: error= 1.61D-05 at cycle   9 NSaved=   9.
 NSaved= 9 IEnMin= 9 EnMin= -438.627616783831     IErMin= 9 ErrMin= 1.61D-05
 ErrMax= 1.61D-05  0.00D+00 EMaxC= 1.00D-01 BMatC= 1.13D-07 BMatP= 3.92D-06
 IDIUse=1 WtCom= 1.00D+00 WtEn= 0.00D+00
 Coeff-Com:  0.224D-04 0.300D-04-0.156D-03-0.564D-03-0.705D-03 0.100D-01
 Coeff-Com:  0.129D+00 0.247D+00 0.616D+00
 Coeff:      0.224D-04 0.300D-04-0.156D-03-0.564D-03-0.705D-03 0.100D-01
 Coeff:      0.129D+00 0.247D+00 0.616D+00
 Gap=     0.168 Goal=   None    Shift=    0.000
 RMSDP=5.36D-06 MaxDP=4.82D-04 DE=-3.14D-06 OVMax= 1.35D-04

 Cycle  10  Pass 1  IDiag  1:
 E= -438.627616879253     Delta-E=       -0.000000095421 Rises=F Damp=F
 DIIS: error= 7.23D-06 at cycle  10 NSaved=  10.
 NSaved=10 IEnMin=10 EnMin= -438.627616879253     IErMin=10 ErrMin= 7.23D-06
 ErrMax= 7.23D-06  0.00D+00 EMaxC= 1.00D-01 BMatC= 1.65D-08 BMatP= 1.13D-07
 IDIUse=1 WtCom= 1.00D+00 WtEn= 0.00D+00
 Coeff-Com: -0.625D-04 0.158D-03 0.227D-04-0.517D-03-0.233D-02-0.133D-03
 Coeff-Com:  0.334D-01 0.747D-01 0.314D+00 0.580D+00
 Coeff:     -0.625D-04 0.158D-03 0.227D-04-0.517D-03-0.233D-02-0.133D-03
 Coeff:      0.334D-01 0.747D-01 0.314D+00 0.580D+00
 Gap=     0.168 Goal=   None    Shift=    0.000
 RMSDP=1.87D-06 MaxDP=1.45D-04 DE=-9.54D-08 OVMax= 5.10D-05

 Cycle  11  Pass 1  IDiag  1:
 E= -438.627616894359     Delta-E=       -0.000000015106 Rises=F Damp=F
 DIIS: error= 2.01D-06 at cycle  11 NSaved=  11.
 NSaved=11 IEnMin=11 EnMin= -438.627616894359     IErMin=11 ErrMin= 2.01D-06
 ErrMax= 2.01D-06  0.00D+00 EMaxC= 1.00D-01 BMatC= 1.45D-09 BMatP= 1.65D-08
 IDIUse=1 WtCom= 1.00D+00 WtEn= 0.00D+00
 Coeff-Com: -0.289D-04 0.666D-04-0.252D-05-0.165D-03-0.102D-02-0.856D-03
 Coeff-Com:  0.585D-02 0.165D-01 0.954D-01 0.250D+00 0.634D+00
 Coeff:     -0.289D-04 0.666D-04-0.252D-05-0.165D-03-0.102D-02-0.856D-03
 Coeff:      0.585D-02 0.165D-01 0.954D-01 0.250D+00 0.634D+00
 Gap=     0.168 Goal=   None    Shift=    0.000
 RMSDP=7.14D-07 MaxDP=8.08D-05 DE=-1.51D-08 OVMax= 1.32D-05

 Cycle  12  Pass 1  IDiag  1:
 E= -438.627616895575     Delta-E=       -0.000000001216 Rises=F Damp=F
 DIIS: error= 1.09D-06 at cycle  12 NSaved=  12.
 NSaved=12 IEnMin=12 EnMin= -438.627616895575     IErMin=12 ErrMin= 1.09D-06
 ErrMax= 1.09D-06  0.00D+00 EMaxC= 1.00D-01 BMatC= 1.93D-10 BMatP= 1.45D-09
 IDIUse=1 WtCom= 1.00D+00 WtEn= 0.00D+00
 Coeff-Com: -0.657D-05 0.117D-04-0.106D-04 0.315D-05-0.170D-03-0.372D-03
 Coeff-Com: -0.155D-02-0.190D-02 0.218D-02 0.358D-01 0.293D+00 0.673D+00
 Coeff:     -0.657D-05 0.117D-04-0.106D-04 0.315D-05-0.170D-03-0.372D-03
 Coeff:     -0.155D-02-0.190D-02 0.218D-02 0.358D-01 0.293D+00 0.673D+00
 Gap=     0.168 Goal=   None    Shift=    0.000
 RMSDP=2.15D-07 MaxDP=1.82D-05 DE=-1.22D-09 OVMax= 3.47D-06

 Cycle  13  Pass 1  IDiag  1:
 E= -438.627616895755     Delta-E=       -0.000000000180 Rises=F Damp=F
 DIIS: error= 1.78D-07 at cycle  13 NSaved=  13.
 NSaved=13 IEnMin=13 EnMin= -438.627616895755     IErMin=13 ErrMin= 1.78D-07
 ErrMax= 1.78D-07  0.00D+00 EMaxC= 1.00D-01 BMatC= 6.97D-12 BMatP= 1.93D-10
 IDIUse=1 WtCom= 1.00D+00 WtEn= 0.00D+00
 Coeff-Com: -0.109D-05 0.135D-05-0.348D-05 0.775D-05-0.104D-04-0.438D-04
 Coeff-Com: -0.540D-03-0.106D-02-0.362D-02-0.335D-02 0.391D-01 0.185D+00
 Coeff-Com:  0.785D+00
 Coeff:     -0.109D-05 0.135D-05-0.348D-05 0.775D-05-0.104D-04-0.438D-04
 Coeff:     -0.540D-03-0.106D-02-0.362D-02-0.335D-02 0.391D-01 0.185D+00
 Coeff:      0.785D+00
 Gap=     0.168 Goal=   None    Shift=    0.000
 RMSDP=3.75D-08 MaxDP=1.75D-06 DE=-1.80D-10 OVMax= 5.70D-07

 Cycle  14  Pass 1  IDiag  1:
 E= -438.627616895778     Delta-E=       -0.000000000023 Rises=F Damp=F
 DIIS: error= 4.25D-08 at cycle  14 NSaved=  14.
 NSaved=14 IEnMin=14 EnMin= -438.627616895778     IErMin=14 ErrMin= 4.25D-08
 ErrMax= 4.25D-08  0.00D+00 EMaxC= 1.00D-01 BMatC= 6.01D-13 BMatP= 6.97D-12
 IDIUse=1 WtCom= 1.00D+00 WtEn= 0.00D+00
 Coeff-Com:  0.101D-06-0.397D-06-0.128D-05 0.395D-05 0.962D-05 0.138D-04
 Coeff-Com: -0.124D-03-0.349D-03-0.190D-02-0.426D-02-0.417D-02 0.329D-01
 Coeff-Com:  0.333D+00 0.645D+00
 Coeff:      0.101D-06-0.397D-06-0.128D-05 0.395D-05 0.962D-05 0.138D-04
 Coeff:     -0.124D-03-0.349D-03-0.190D-02-0.426D-02-0.417D-02 0.329D-01
 Coeff:      0.333D+00 0.645D+00
 Gap=     0.168 Goal=   None    Shift=    0.000
 RMSDP=1.68D-08 MaxDP=1.49D-06 DE=-2.27D-11 OVMax= 2.07D-07

 Cycle  15  Pass 1  IDiag  1:
 E= -438.627616895755     Delta-E=        0.000000000022 Rises=F Damp=F
 DIIS: error= 9.43D-09 at cycle  15 NSaved=  15.
 NSaved=15 IEnMin=14 EnMin= -438.627616895778     IErMin=15 ErrMin= 9.43D-09
 ErrMax= 9.43D-09  0.00D+00 EMaxC= 1.00D-01 BMatC= 2.06D-14 BMatP= 6.01D-13
 IDIUse=1 WtCom= 1.00D+00 WtEn= 0.00D+00
 Coeff-Com:  0.528D-07-0.109D-06-0.116D-06 0.482D-06 0.188D-05 0.629D-05
 Coeff-Com:  0.418D-05-0.231D-04-0.271D-03-0.928D-03-0.403D-02-0.301D-02
 Coeff-Com:  0.484D-01 0.206D+00 0.754D+00
 Coeff:      0.528D-07-0.109D-06-0.116D-06 0.482D-06 0.188D-05 0.629D-05
 Coeff:      0.418D-05-0.231D-04-0.271D-03-0.928D-03-0.403D-02-0.301D-02
 Coeff:      0.484D-01 0.206D+00 0.754D+00
 Gap=     0.168 Goal=   None    Shift=    0.000
 RMSDP=2.32D-09 MaxDP=1.72D-07 DE= 2.21D-11 OVMax= 2.66D-08

 Error on total polarization charges =  0.01457
 SCF Done:  E(RN12SX) =  -438.627616896     A.U. after   15 cycles
            NFock= 15  Conv=0.23D-08     -V/T= 2.0058
 KE= 4.361010218772D+02 PE=-2.105359346822D+03 EE= 6.875860061497D+02
 Leave Link  502 at Wed Jun 23 05:26:08 2021, MaxMem=  3355443200 cpu:       866.3
 (Enter /usr/local/gqt/g09/l601.exe)
 Copying SCF densities to generalized density rwf, IOpCl= 0 IROHF=0.

 **********************************************************************

            Population analysis using the SCF density.

 **********************************************************************

 Orbital symmetries:
       Occupied  (A) (A) (A) (A) (A) (A) (A) (A) (A) (A) (A) (A)
                 (A) (A) (A) (A) (A) (A) (A) (A) (A) (A) (A) (A)
                 (A) (A) (A) (A) (A) (A) (A) (A) (A) (A) (A) (A)
                 (A) (A)
       Virtual   (A) (A) (A) (A) (A) (A) (A) (A) (A) (A) (A) (A)
                 (A) (A) (A) (A) (A) (A) (A) (A) (A) (A) (A) (A)
                 (A) (A) (A) (A) (A) (A) (A) (A) (A) (A) (A) (A)
                 (A) (A) (A) (A) (A) (A) (A) (A) (A) (A) (A) (A)
                 (A) (A) (A) (A) (A) (A) (A) (A) (A) (A) (A) (A)
                 (A) (A) (A) (A) (A) (A) (A) (A) (A) (A) (A) (A)
                 (A) (A) (A) (A) (A) (A) (A) (A) (A) (A) (A) (A)
                 (A) (A) (A) (A) (A) (A) (A) (A) (A) (A) (A) (A)
                 (A) (A) (A) (A) (A) (A) (A) (A) (A) (A) (A) (A)
                 (A) (A) (A) (A) (A) (A) (A) (A) (A) (A) (A) (A)
                 (A) (A) (A) (A) (A) (A) (A) (A) (A) (A) (A) (A)
                 (A) (A) (A) (A) (A) (A) (A) (A) (A) (A) (A) (A)
                 (A) (A) (A) (A) (A) (A) (A) (A) (A) (A) (A) (A)
                 (A) (A) (A) (A) (A) (A) (A) (A) (A) (A) (A) (A)
                 (A) (A) (A) (A) (A) (A) (A) (A) (A) (A) (A) (A)
                 (A) (A) (A) (A) (A) (A) (A) (A) (A) (A) (A) (A)
                 (A) (A) (A) (A) (A) (A) (A) (A) (A) (A) (A) (A)
                 (A) (A) (A) (A) (A) (A) (A) (A) (A) (A) (A) (A)
                 (A) (A) (A) (A) (A) (A) (A) (A) (A) (A) (A) (A)
                 (A) (A) (A) (A) (A) (A) (A) (A) (A) (A) (A) (A)
                 (A) (A) (A) (A) (A) (A) (A) (A) (A) (A) (A) (A)
                 (A) (A) (A) (A) (A) (A) (A) (A)
 The electronic state is 1-A.
 Alpha  occ. eigenvalues --  -14.46820 -14.45238 -14.42844 -10.26483 -10.26089
 Alpha  occ. eigenvalues --  -10.25587 -10.22813 -10.21005 -10.20490 -10.20026
 Alpha  occ. eigenvalues --   -1.13062  -0.95339  -0.83132  -0.80306  -0.75928
 Alpha  occ. eigenvalues --   -0.73207  -0.66988  -0.63580  -0.59937  -0.57254
 Alpha  occ. eigenvalues --   -0.51887  -0.51304  -0.47323  -0.47092  -0.44725
 Alpha  occ. eigenvalues --   -0.42485  -0.41598  -0.41422  -0.38856  -0.38487
 Alpha  occ. eigenvalues --   -0.37151  -0.36068  -0.34847  -0.34754  -0.33666
 Alpha  occ. eigenvalues --   -0.28977  -0.23947  -0.20932
 Alpha virt. eigenvalues --   -0.04146  -0.00440   0.00636   0.01138   0.01987
 Alpha virt. eigenvalues --    0.02485   0.02860   0.03358   0.03916   0.04820
 Alpha virt. eigenvalues --    0.05290   0.05906   0.06309   0.06620   0.07055
 Alpha virt. eigenvalues --    0.07614   0.08429   0.08727   0.09387   0.09820
 Alpha virt. eigenvalues --    0.10750   0.11865   0.12995   0.13703   0.13956
 Alpha virt. eigenvalues --    0.14456   0.15133   0.15686   0.16203   0.16990
 Alpha virt. eigenvalues --    0.17866   0.18097   0.18156   0.18885   0.19249
 Alpha virt. eigenvalues --    0.19578   0.20186   0.20566   0.20738   0.21224
 Alpha virt. eigenvalues --    0.21702   0.22204   0.22906   0.23516   0.23835
 Alpha virt. eigenvalues --    0.24644   0.25122   0.25140   0.26418   0.26984
 Alpha virt. eigenvalues --    0.27299   0.27541   0.29032   0.29364   0.31493
 Alpha virt. eigenvalues --    0.32682   0.33484   0.34244   0.36093   0.37017
 Alpha virt. eigenvalues --    0.38742   0.39253   0.40496   0.41027   0.42339
 Alpha virt. eigenvalues --    0.43290   0.45268   0.46662   0.46924   0.49319
 Alpha virt. eigenvalues --    0.50236   0.51737   0.52459   0.54227   0.54845
 Alpha virt. eigenvalues --    0.55283   0.57250   0.58632   0.60465   0.60914
 Alpha virt. eigenvalues --    0.62468   0.62615   0.63910   0.64296   0.66355
 Alpha virt. eigenvalues --    0.66736   0.67451   0.68013   0.69465   0.70262
 Alpha virt. eigenvalues --    0.70656   0.71103   0.72223   0.73508   0.75343
 Alpha virt. eigenvalues --    0.75635   0.77197   0.82734   0.83026   0.84290
 Alpha virt. eigenvalues --    0.84800   0.84984   0.86351   0.86833   0.88343
 Alpha virt. eigenvalues --    0.93609   0.95532   0.96454   0.98104   1.02418
 Alpha virt. eigenvalues --    1.02771   1.05004   1.07671   1.10868   1.10991
 Alpha virt. eigenvalues --    1.12541   1.17852   1.20070   1.24194   1.25348
 Alpha virt. eigenvalues --    1.25560   1.28531   1.28663   1.31917   1.35762
 Alpha virt. eigenvalues --    1.35853   1.39415   1.41000   1.44089   1.45669
 Alpha virt. eigenvalues --    1.47096   1.47470   1.49413   1.50388   1.52884
 Alpha virt. eigenvalues --    1.53437   1.54153   1.54816   1.54878   1.55138
 Alpha virt. eigenvalues --    1.58521   1.59080   1.60960   1.61678   1.62464
 Alpha virt. eigenvalues --    1.63947   1.64725   1.67341   1.69010   1.70984
 Alpha virt. eigenvalues --    1.71310   1.72352   1.76122   1.76871   1.80257
 Alpha virt. eigenvalues --    1.81994   1.83072   1.86636   1.87829   1.90046
 Alpha virt. eigenvalues --    1.90776   1.94110   1.94670   1.97012   1.99695
 Alpha virt. eigenvalues --    2.01300   2.04860   2.07623   2.09555   2.12322
 Alpha virt. eigenvalues --    2.13073   2.13217   2.15481   2.16402   2.19663
 Alpha virt. eigenvalues --    2.21450   2.25409   2.28196   2.32497   2.33488
 Alpha virt. eigenvalues --    2.37243   2.38399   2.38773   2.40317   2.45143
 Alpha virt. eigenvalues --    2.46568   2.47751   2.48070   2.49025   2.50986
 Alpha virt. eigenvalues --    2.51345   2.52536   2.53378   2.53967   2.56324
 Alpha virt. eigenvalues --    2.57667   2.61464   2.61743   2.62613   2.64155
 Alpha virt. eigenvalues --    2.64274   2.65820   2.66498   2.66958   2.69119
 Alpha virt. eigenvalues --    2.70479   2.72949   2.75798   2.77577   2.78568
 Alpha virt. eigenvalues --    2.82039   2.82844   2.85932   2.89214   2.92785
 Alpha virt. eigenvalues --    2.93970   2.97099   3.00878   3.02421   3.07878
 Alpha virt. eigenvalues --    3.14744   3.17186   3.22737   3.28815   3.36159
 Alpha virt. eigenvalues --    3.45568   3.51240   3.64956   3.68637   3.73706
 Alpha virt. eigenvalues --    3.74428   3.79148   3.80306   3.81984   3.82919
 Alpha virt. eigenvalues --    3.83021   3.83221   3.84444   3.85372   3.93569
 Alpha virt. eigenvalues --    3.99883   4.09356   4.17261   4.21194   4.25931
 Alpha virt. eigenvalues --    4.35322   4.82489   4.94750   5.04653   5.58145
 Alpha virt. eigenvalues --   23.61270  23.77625  23.80703  23.83409  23.88733
 Alpha virt. eigenvalues --   23.89784  23.98611  35.21950  35.33747  35.36699
          Condensed to atoms (all electrons):
               1          2          3          4          5          6
     1  N    7.612566  -0.213115   0.215277  -0.664071  -0.234219   0.111979
     2  N   -0.213115   7.264288  -0.929247   1.114230  -0.068649   0.060778
     3  C    0.215277  -0.929247  12.857463  -6.152744   0.728393   0.018635
     4  C   -0.664071   1.114230  -6.152744  14.555073  -0.465231  -0.158995
     5  N   -0.234219  -0.068649   0.728393  -0.465231   7.242176  -0.047711
     6  C    0.111979   0.060778   0.018635  -0.158995  -0.047711   5.115664
     7  C    0.041469  -0.073261  -0.042953  -0.018061  -0.119406  -0.004824
     8  C   -0.084913   0.039426   0.098036  -0.207673   0.086382   0.000453
     9  C    0.031192  -0.079277   0.331720  -0.334599   0.010754  -0.011958
    10  C    0.242269  -0.177635  -1.823012  -0.115214  -0.119597  -0.087028
    11  H   -0.019109  -0.032886   0.040792   0.012418   0.004463   0.398091
    12  H    0.025907  -0.048849  -0.027849  -0.002079  -0.013552   0.426378
    13  H    0.026390  -0.049884  -0.028894  -0.001702  -0.012710   0.425567
    14  H   -0.000422   0.000910   0.009704   0.010153   0.013799   0.000142
    15  H    0.001385   0.000396  -0.020666   0.005841  -0.001078  -0.000136
    16  H    0.001108   0.000402  -0.026373   0.008267   0.001024  -0.000141
    17  H    0.018203  -0.002745   0.008490  -0.022831  -0.062047  -0.000286
    18  H    0.001602  -0.002965   0.003080  -0.021060  -0.041639  -0.000488
    19  H   -0.000935  -0.001775   0.034176   0.024035   0.000995  -0.000274
    20  H   -0.000142   0.001330  -0.000865  -0.029636  -0.001018   0.001019
    21  H   -0.000133   0.001193   0.004135  -0.033020  -0.000899   0.001045
    22  H    0.009434  -0.005836  -0.070499  -0.029493  -0.003515   0.005190
    23  H    0.009041  -0.006138  -0.042284  -0.048758  -0.003496   0.006008
               7          8          9         10         11         12
     1  N    0.041469  -0.084913   0.031192   0.242269  -0.019109   0.025907
     2  N   -0.073261   0.039426  -0.079277  -0.177635  -0.032886  -0.048849
     3  C   -0.042953   0.098036   0.331720  -1.823012   0.040792  -0.027849
     4  C   -0.018061  -0.207673  -0.334599  -0.115214   0.012418  -0.002079
     5  N   -0.119406   0.086382   0.010754  -0.119597   0.004463  -0.013552
     6  C   -0.004824   0.000453  -0.011958  -0.087028   0.398091   0.426378
     7  C    5.463225  -0.102570   0.016259   0.001788  -0.000090  -0.000047
     8  C   -0.102570   5.743838  -0.011117  -0.027364   0.000094  -0.000137
     9  C    0.016259  -0.011117   5.796614  -0.337045   0.009858  -0.001040
    10  C    0.001788  -0.027364  -0.337045   8.067507  -0.046638   0.014729
    11  H   -0.000090   0.000094   0.009858  -0.046638   0.481412  -0.018912
    12  H   -0.000047  -0.000137  -0.001040   0.014729  -0.018912   0.467173
    13  H    0.000039  -0.000201  -0.001158   0.016282  -0.019021  -0.028346
    14  H    0.375829  -0.031617  -0.000218   0.000164   0.000000   0.000000
    15  H    0.454389  -0.054694  -0.000286   0.001864   0.000000   0.000001
    16  H    0.456869  -0.055603  -0.000327   0.001891   0.000000   0.000000
    17  H   -0.033727   0.450005   0.000118   0.000825  -0.000001   0.000040
    18  H   -0.033108   0.450662  -0.000068   0.001602  -0.000002  -0.000055
    19  H   -0.000239   0.000498   0.397771  -0.083141   0.000008  -0.000001
    20  H   -0.000244  -0.000293   0.415909  -0.015230   0.000006   0.000000
    21  H   -0.000378  -0.000148   0.417516  -0.018532   0.000006   0.000001
    22  H    0.000142  -0.000228  -0.057110   0.488525   0.000677  -0.000007
    23  H   -0.000123   0.000150  -0.051075   0.472472   0.000748   0.000027
              13         14         15         16         17         18
     1  N    0.026390  -0.000422   0.001385   0.001108   0.018203   0.001602
     2  N   -0.049884   0.000910   0.000396   0.000402  -0.002745  -0.002965
     3  C   -0.028894   0.009704  -0.020666  -0.026373   0.008490   0.003080
     4  C   -0.001702   0.010153   0.005841   0.008267  -0.022831  -0.021060
     5  N   -0.012710   0.013799  -0.001078   0.001024  -0.062047  -0.041639
     6  C    0.425567   0.000142  -0.000136  -0.000141  -0.000286  -0.000488
     7  C    0.000039   0.375829   0.454389   0.456869  -0.033727  -0.033108
     8  C   -0.000201  -0.031617  -0.054694  -0.055603   0.450005   0.450662
     9  C   -0.001158  -0.000218  -0.000286  -0.000327   0.000118  -0.000068
    10  C    0.016282   0.000164   0.001864   0.001891   0.000825   0.001602
    11  H   -0.019021   0.000000   0.000000   0.000000  -0.000001  -0.000002
    12  H   -0.028346   0.000000   0.000001   0.000000   0.000040  -0.000055
    13  H    0.467423   0.000000   0.000000   0.000001  -0.000055   0.000035
    14  H    0.000000   0.510961  -0.024290  -0.023675  -0.005145  -0.004926
    15  H    0.000000  -0.024290   0.504018  -0.030777   0.006246  -0.007007
    16  H    0.000001  -0.023675  -0.030777   0.503602  -0.007355   0.006294
    17  H   -0.000055  -0.005145   0.006246  -0.007355   0.497066  -0.035762
    18  H    0.000035  -0.004926  -0.007007   0.006294  -0.035762   0.493010
    19  H   -0.000001   0.000000   0.000001   0.000001   0.000000   0.000000
    20  H    0.000001   0.000000   0.000003  -0.000014   0.000001  -0.000001
    21  H    0.000000   0.000000  -0.000015   0.000002  -0.000001   0.000002
    22  H    0.000040   0.000000  -0.000001  -0.000001  -0.000001  -0.000002
    23  H   -0.000044   0.000000  -0.000002  -0.000001  -0.000001  -0.000001
              19         20         21         22         23
     1  N   -0.000935  -0.000142  -0.000133   0.009434   0.009041
     2  N   -0.001775   0.001330   0.001193  -0.005836  -0.006138
     3  C    0.034176  -0.000865   0.004135  -0.070499  -0.042284
     4  C    0.024035  -0.029636  -0.033020  -0.029493  -0.048758
     5  N    0.000995  -0.001018  -0.000899  -0.003515  -0.003496
     6  C   -0.000274   0.001019   0.001045   0.005190   0.006008
     7  C   -0.000239  -0.000244  -0.000378   0.000142  -0.000123
     8  C    0.000498  -0.000293  -0.000148  -0.000228   0.000150
     9  C    0.397771   0.415909   0.417516  -0.057110  -0.051075
    10  C   -0.083141  -0.015230  -0.018532   0.488525   0.472472
    11  H    0.000008   0.000006   0.000006   0.000677   0.000748
    12  H   -0.000001   0.000000   0.000001  -0.000007   0.000027
    13  H   -0.000001   0.000001   0.000000   0.000040  -0.000044
    14  H    0.000000   0.000000   0.000000   0.000000   0.000000
    15  H    0.000001   0.000003  -0.000015  -0.000001  -0.000002
    16  H    0.000001  -0.000014   0.000002  -0.000001  -0.000001
    17  H    0.000000   0.000001  -0.000001  -0.000001  -0.000001
    18  H    0.000000  -0.000001   0.000002  -0.000002  -0.000001
    19  H    0.523882  -0.024071  -0.024031  -0.004630  -0.004572
    20  H   -0.024071   0.520673  -0.031154   0.007337  -0.007393
    21  H   -0.024031  -0.031154   0.520567  -0.007331   0.007337
    22  H   -0.004630   0.007337  -0.007331   0.511897  -0.039748
    23  H   -0.004572  -0.007393   0.007337  -0.039748   0.512860
 Mulliken charges:
               1
     1  N   -0.130759
     2  N    0.209309
     3  C    0.815486
     4  C   -1.424851
     5  N    0.106780
     6  C   -0.259110
     7  C   -0.380976
     8  C   -0.292986
     9  C   -0.542434
    10  C   -0.459482
    11  H    0.188086
    12  H    0.206619
    13  H    0.206237
    14  H    0.168631
    15  H    0.164807
    16  H    0.164806
    17  H    0.188965
    18  H    0.190799
    19  H    0.162306
    20  H    0.163779
    21  H    0.163837
    22  H    0.195160
    23  H    0.194993
 Sum of Mulliken charges =   0.00000
 Mulliken charges with hydrogens summed into heavy atoms:
               1
     1  N   -0.130759
     2  N    0.209309
     3  C    0.815486
     4  C   -1.424851
     5  N    0.106780
     6  C    0.341832
     7  C    0.117268
     8  C    0.086777
     9  C   -0.052512
    10  C   -0.069330
 Electronic spatial extent (au):  <R**2>=           1768.8040
 Charge=              0.0000 electrons
 Dipole moment (field-independent basis, Debye):
    X=             -2.3997    Y=             -3.9879    Z=              0.0390  Tot=              4.6544
 Quadrupole moment (field-independent basis, Debye-Ang):
   XX=            -46.5516   YY=            -64.2567   ZZ=            -61.4314
   XY=              3.7105   XZ=             -0.0757   YZ=              0.0158
 Traceless Quadrupole moment (field-independent basis, Debye-Ang):
   XX=             10.8616   YY=             -6.8435   ZZ=             -4.0182
   XY=              3.7105   XZ=             -0.0757   YZ=              0.0158
 Octapole moment (field-independent basis, Debye-Ang**2):
  XXX=              7.2586  YYY=            -28.5645  ZZZ=              0.1010  XYY=            -19.3517
  XXY=            -10.3254  XXZ=             -0.0689  XZZ=             -0.3595  YZZ=             -6.4254
  YYZ=              0.2248  XYZ=              0.0621
 Hexadecapole moment (field-independent basis, Debye-Ang**3):
 XXXX=          -1367.8802 YYYY=           -812.2076 ZZZZ=            -98.4803 XXXY=              9.3112
 XXXZ=             -0.7751 YYYX=             38.2546 YYYZ=             -0.2794 ZZZX=             -0.2772
 ZZZY=              0.2478 XXYY=           -367.4569 XXZZ=           -261.5487 YYZZ=           -144.2255
 XXYZ=             -0.1082 YYXZ=             -0.0221 ZZXY=              3.3103
 N-N= 5.430447018992D+02 E-N=-2.105359348987D+03  KE= 4.361010218773D+02
 No NMR shielding tensors so no spin-rotation constants.
 Leave Link  601 at Wed Jun 23 05:26:09 2021, MaxMem=  3355443200 cpu:         2.1
 (Enter /usr/local/gqt/g09/l701.exe)
 Compute integral first derivatives.
 ... and contract with generalized density number  0.
 D1PCM: PCM CHGder 1st derivatives, ID1Alg=3 FixD1E=F DoIter=F DoCFld=F I1PDM=0.
 GePol: Maximum number of non-zero 1st derivatives   =     225
 Leave Link  701 at Wed Jun 23 05:26:10 2021, MaxMem=  3355443200 cpu:        22.1
 (Enter /usr/local/gqt/g09/l702.exe)
 L702 exits ... SP integral derivatives will be done elsewhere.
 Leave Link  702 at Wed Jun 23 05:26:10 2021, MaxMem=  3355443200 cpu:         0.3
 (Enter /usr/local/gqt/g09/l703.exe)
 Compute integral first derivatives, UseDBF=F ICtDFT=           0.
 Integral derivatives from FoFJK, PRISM(SPDF).
 Calling FoFJK, ICntrl=      2127 FMM=F ISym2X=0 I1Cent= 0 IOpClX= 0 NMat=1 NMatS=1 NMatT=0.
 FoFJK:  IHMeth= 1 ICntrl=    2127 DoSepK=T KAlg= 0 I1Cent=   0 FoldK=F
 IRaf=         1 NMat=   1 IRICut=       1 DoRegI=T DoRafI=F ISym2E= 0.
 FoFCou: FMM=F IPFlag=           0 FMFlag=      100000 FMFlg1=         800
         NFxFlg=           0 DoJE=F BraDBF=F KetDBF=F FulRan=T
         wScrn=  0.000000 ICntrl=    2527 IOpCl=  0 I1Cent=           0 NGrid=           0
         NMat0=    1 NMatS0=      1 NMatT0=    0 NMatD0=    1 NMtDS0=    0 NMtDT0=    0
 Symmetry not used in FoFCou.
 Leave Link  703 at Wed Jun 23 05:26:32 2021, MaxMem=  3355443200 cpu:       348.3
 (Enter /usr/local/gqt/g09/l716.exe)
 Dipole        =-9.44132275D-01-1.56895043D+00 1.53618891D-02
 ***** Axes restored to original set *****
 -------------------------------------------------------------------
 Center     Atomic                   Forces (Hartrees/Bohr)
 Number     Number              X              Y              Z
 -------------------------------------------------------------------
      1        7           0.005405989   -0.000164818   -0.000084800
      2        7          -0.001764227   -0.001218330    0.000115722
      3        6          -0.000205343    0.003766658    0.000085097
      4        6          -0.001210626    0.001607878    0.000069592
      5        7          -0.008568446   -0.014111999   -0.000646691
      6        6          -0.000088990    0.000158934   -0.000027637
      7        6          -0.001420858    0.001071305    0.000257483
      8        6           0.004078030    0.008439703    0.000252511
      9        6          -0.000123547   -0.000015607   -0.000002355
     10        6          -0.000049851    0.000259147   -0.000007910
     11        1           0.000033968   -0.000052059    0.000004347
     12        1           0.000042149   -0.000061511   -0.000019953
     13        1           0.000043957   -0.000053553    0.000017691
     14        1           0.001051578    0.000799649   -0.000021826
     15        1          -0.000091234    0.000580502   -0.000816880
     16        1          -0.000233744    0.000495931    0.000654642
     17        1           0.001617730   -0.000622896   -0.000509096
     18        1           0.001785675   -0.000797417    0.000679702
     19        1          -0.000027158    0.000008969    0.000000760
     20        1          -0.000111880    0.000005108    0.000037535
     21        1          -0.000105185   -0.000008028   -0.000038826
     22        1          -0.000028122   -0.000043256    0.000004641
     23        1          -0.000029863   -0.000044307   -0.000003746
 -------------------------------------------------------------------
 Cartesian Forces:  Max     0.014111999 RMS     0.002489130
 Leave Link  716 at Wed Jun 23 05:26:32 2021, MaxMem=  3355443200 cpu:         0.3
 (Enter /usr/local/gqt/g09/l103.exe)

 GradGradGradGradGradGradGradGradGradGradGradGradGradGradGradGradGradGrad
 Berny optimization.
 FormGI is forming the generalized inverse of G from B-inverse, IUseBI=4.
 Internal  Forces:  Max     0.014003019 RMS     0.001979493
 Search for a local minimum.
 Step number   1 out of a maximum of  122
 All quantities printed in internal units (Hartrees-Bohrs-Radians)
 RMS Force = .19795D-02 SwitMx=.10000D-02 MixMth= 1
 Mixed Optimization -- RFO/linear search
 Second derivative matrix not updated -- first step.
 ITU=  0
     Eigenvalues ---    0.00525   0.00637   0.00862   0.00882   0.01046
     Eigenvalues ---    0.01403   0.01516   0.01660   0.02184   0.02357
     Eigenvalues ---    0.04145   0.04145   0.05405   0.05525   0.05588
     Eigenvalues ---    0.05622   0.05707   0.05952   0.07639   0.07754
     Eigenvalues ---    0.09587   0.09867   0.12976   0.13052   0.16000
     Eigenvalues ---    0.16000   0.16000   0.16000   0.16000   0.16000
     Eigenvalues ---    0.16000   0.16000   0.16000   0.21923   0.21987
     Eigenvalues ---    0.25000   0.25000   0.25000   0.25000   0.25000
     Eigenvalues ---    0.30543   0.31378   0.33311   0.34563   0.34563
     Eigenvalues ---    0.35055   0.35101   0.35111   0.35111   0.35148
     Eigenvalues ---    0.35149   0.35194   0.35194   0.35388   0.35388
     Eigenvalues ---    0.35738   0.36626   0.38396   0.44603   0.46300
     Eigenvalues ---    0.51584   0.60231   0.63544
 RFO step:  Lambda=-1.76346885D-03 EMin= 5.25471777D-03
 Linear search not attempted -- first point.
 Iteration  1 RMS(Cart)=  0.04050949 RMS(Int)=  0.00037517
 Iteration  2 RMS(Cart)=  0.00089364 RMS(Int)=  0.00003977
 Iteration  3 RMS(Cart)=  0.00000011 RMS(Int)=  0.00003977
 ITry= 1 IFail=0 DXMaxC= 1.34D-01 DCOld= 1.00D+10 DXMaxT= 3.00D-01 DXLimC= 3.00D+00 Rises=F
 Variable       Old X    -DE/DX   Delta X   Delta X   Delta X     New X
                                 (Linear)    (Quad)   (Total)
    R1        2.46472   0.00035   0.00000   0.00032   0.00032   2.46503
    R2        2.48737  -0.00024   0.00000  -0.00039  -0.00039   2.48698
    R3        2.57997  -0.00196   0.00000  -0.00391  -0.00391   2.57605
    R4        2.73793  -0.00002   0.00000  -0.00006  -0.00006   2.73787
    R5        2.63008   0.00327   0.00000   0.00713   0.00713   2.63721
    R6        2.81808   0.00049   0.00000   0.00145   0.00145   2.81953
    R7        2.58175   0.00078   0.00000   0.00175   0.00175   2.58350
    R8        2.76414   0.00178   0.00000   0.00482   0.00482   2.76897
    R9        2.04494  -0.00004   0.00000  -0.00012  -0.00012   2.04482
   R10        2.05050  -0.00003   0.00000  -0.00008  -0.00008   2.05041
   R11        2.05049  -0.00002   0.00000  -0.00006  -0.00006   2.05043
   R12        2.85296  -0.00290   0.00000  -0.00919  -0.00919   2.84377
   R13        2.05511   0.00071   0.00000   0.00202   0.00202   2.05713
   R14        2.05362  -0.00082   0.00000  -0.00232  -0.00232   2.05130
   R15        2.05361  -0.00060   0.00000  -0.00169  -0.00169   2.05193
   R16        2.05435   0.00097   0.00000   0.00274   0.00274   2.05709
   R17        2.05434   0.00115   0.00000   0.00324   0.00324   2.05758
   R18        2.86894   0.00013   0.00000   0.00043   0.00043   2.86937
   R19        2.05585   0.00003   0.00000   0.00009   0.00009   2.05594
   R20        2.05495  -0.00007   0.00000  -0.00020  -0.00020   2.05475
   R21        2.05495  -0.00006   0.00000  -0.00017  -0.00017   2.05478
   R22        2.06390  -0.00001   0.00000  -0.00002  -0.00002   2.06389
   R23        2.06390  -0.00001   0.00000  -0.00002  -0.00002   2.06388
    A1        1.80573   0.00077   0.00000   0.00217   0.00217   1.80790
    A2        1.95169   0.00015   0.00000  -0.00017  -0.00017   1.95153
    A3        2.07398  -0.00020   0.00000  -0.00041  -0.00041   2.07357
    A4        2.25751   0.00005   0.00000   0.00058   0.00058   2.25809
    A5        1.88321   0.00017   0.00000   0.00072   0.00072   1.88393
    A6        2.12320  -0.00098   0.00000  -0.00393  -0.00393   2.11927
    A7        2.27677   0.00082   0.00000   0.00321   0.00321   2.27998
    A8        1.75148  -0.00080   0.00000  -0.00193  -0.00193   1.74956
    A9        2.03266  -0.00029   0.00000  -0.00079  -0.00080   2.03187
   A10        2.07986  -0.01371   0.00000  -0.05465  -0.05466   2.02520
   A11        2.17067   0.01400   0.00000   0.05544   0.05543   2.22610
   A12        1.90035  -0.00003   0.00000  -0.00006  -0.00006   1.90029
   A13        1.91509  -0.00008   0.00000  -0.00057  -0.00057   1.91451
   A14        1.91506  -0.00008   0.00000  -0.00051  -0.00051   1.91455
   A15        1.90901   0.00007   0.00000   0.00053   0.00053   1.90954
   A16        1.90901   0.00007   0.00000   0.00056   0.00056   1.90957
   A17        1.91520   0.00004   0.00000   0.00007   0.00007   1.91527
   A18        1.89301  -0.00136   0.00000  -0.00763  -0.00764   1.88538
   A19        1.94925  -0.00009   0.00000  -0.00080  -0.00080   1.94845
   A20        1.94926  -0.00021   0.00000  -0.00185  -0.00186   1.94741
   A21        1.88976   0.00087   0.00000   0.00637   0.00637   1.89614
   A22        1.88976   0.00086   0.00000   0.00573   0.00572   1.89548
   A23        1.89104   0.00001   0.00000  -0.00128  -0.00128   1.88976
   A24        1.99454  -0.00245   0.00000  -0.01006  -0.01003   1.98451
   A25        1.86086   0.00173   0.00000   0.01290   0.01284   1.87370
   A26        1.86081   0.00196   0.00000   0.01584   0.01579   1.87660
   A27        1.93515  -0.00028   0.00000  -0.00721  -0.00720   1.92796
   A28        1.93516  -0.00037   0.00000  -0.00680  -0.00677   1.92839
   A29        1.87105  -0.00036   0.00000  -0.00298  -0.00315   1.86791
   A30        1.92145  -0.00008   0.00000  -0.00083  -0.00083   1.92062
   A31        1.94019   0.00010   0.00000   0.00074   0.00074   1.94093
   A32        1.94019   0.00010   0.00000   0.00081   0.00081   1.94100
   A33        1.89093  -0.00004   0.00000  -0.00058  -0.00058   1.89035
   A34        1.89093  -0.00004   0.00000  -0.00057  -0.00057   1.89036
   A35        1.87847  -0.00004   0.00000   0.00038   0.00038   1.87885
   A36        1.97669   0.00087   0.00000   0.00423   0.00423   1.98093
   A37        1.91053  -0.00025   0.00000  -0.00079  -0.00078   1.90974
   A38        1.91054  -0.00024   0.00000  -0.00065  -0.00065   1.90990
   A39        1.90761  -0.00028   0.00000  -0.00132  -0.00132   1.90629
   A40        1.90761  -0.00028   0.00000  -0.00128  -0.00128   1.90632
   A41        1.84631   0.00013   0.00000  -0.00053  -0.00053   1.84578
    D1       -0.00010  -0.00001   0.00000   0.00013   0.00009  -0.00001
    D2        3.14154   0.00000   0.00000   0.00049   0.00047  -3.14117
    D3        0.00007   0.00003   0.00000   0.00032   0.00035   0.00042
    D4       -3.14146   0.00015   0.00000   0.00736   0.00711  -3.13436
    D5        0.00010  -0.00001   0.00000  -0.00051  -0.00047  -0.00037
    D6       -3.14155  -0.00001   0.00000  -0.00029  -0.00027   3.14137
    D7       -3.14155  -0.00002   0.00000  -0.00092  -0.00090   3.14073
    D8       -0.00001  -0.00002   0.00000  -0.00070  -0.00070  -0.00071
    D9        3.14125   0.00000   0.00000  -0.00010  -0.00011   3.14114
   D10       -1.05310   0.00002   0.00000   0.00016   0.00015  -1.05295
   D11        1.05243  -0.00003   0.00000  -0.00043  -0.00044   1.05198
   D12       -0.00029   0.00001   0.00000   0.00034   0.00035   0.00006
   D13        2.08855   0.00003   0.00000   0.00060   0.00061   2.08916
   D14       -2.08911  -0.00002   0.00000   0.00000   0.00001  -2.08909
   D15       -0.00005   0.00003   0.00000   0.00062   0.00060   0.00055
   D16       -3.14158   0.00002   0.00000   0.00038   0.00037  -3.14121
   D17        3.14142   0.00000   0.00000  -0.00012  -0.00011   3.14132
   D18       -1.00834   0.00006   0.00000   0.00053   0.00053  -1.00781
   D19        1.00800  -0.00007   0.00000  -0.00091  -0.00090   1.00709
   D20       -0.00023   0.00001   0.00000   0.00015   0.00015  -0.00009
   D21        2.13318   0.00006   0.00000   0.00080   0.00079   2.13397
   D22       -2.13366  -0.00006   0.00000  -0.00064  -0.00065  -2.13431
   D23       -0.00001  -0.00004   0.00000  -0.00061  -0.00061  -0.00062
   D24        3.14152  -0.00016   0.00000  -0.00806  -0.00827   3.13325
   D25       -3.09619   0.00002   0.00000   0.00310   0.00309  -3.09309
   D26       -0.95186  -0.00066   0.00000  -0.00318  -0.00326  -0.95512
   D27        1.04270   0.00064   0.00000   0.00670   0.00677   1.04947
   D28        0.04547   0.00014   0.00000   0.01073   0.01073   0.05620
   D29        2.18980  -0.00053   0.00000   0.00446   0.00438   2.19418
   D30       -2.09884   0.00077   0.00000   0.01433   0.01441  -2.08442
   D31       -3.14154  -0.00012   0.00000  -0.00391  -0.00391   3.13773
   D32        1.03817  -0.00044   0.00000  -0.00824  -0.00823   1.02994
   D33       -1.03813   0.00042   0.00000   0.00456   0.00456  -1.03357
   D34       -1.06035   0.00003   0.00000  -0.00143  -0.00143  -1.06178
   D35        3.11936  -0.00029   0.00000  -0.00575  -0.00575   3.11361
   D36        1.04307   0.00057   0.00000   0.00704   0.00704   1.05010
   D37        1.06044  -0.00018   0.00000  -0.00496  -0.00496   1.05549
   D38       -1.04303  -0.00050   0.00000  -0.00928  -0.00928  -1.05231
   D39       -3.11932   0.00036   0.00000   0.00351   0.00351  -3.11582
   D40        3.14158  -0.00001   0.00000  -0.00041  -0.00041   3.14117
   D41        1.00654  -0.00008   0.00000  -0.00134  -0.00134   1.00519
   D42       -1.00654   0.00008   0.00000   0.00072   0.00072  -1.00582
   D43       -1.04613  -0.00005   0.00000  -0.00120  -0.00120  -1.04734
   D44        3.10201  -0.00012   0.00000  -0.00213  -0.00213   3.09988
   D45        1.08893   0.00003   0.00000  -0.00006  -0.00006   1.08887
   D46        1.04611   0.00004   0.00000   0.00032   0.00032   1.04643
   D47       -1.08894  -0.00004   0.00000  -0.00061  -0.00061  -1.08955
   D48       -3.10202   0.00012   0.00000   0.00146   0.00146  -3.10056
         Item               Value     Threshold  Converged?
 Maximum Force            0.014003     0.000450     NO 
 RMS     Force            0.001979     0.000300     NO 
 Maximum Displacement     0.134486     0.001800     NO 
 RMS     Displacement     0.040376     0.001200     NO 
 Predicted change in Energy=-8.889896D-04
 Lowest energy point so far.  Saving SCF results.
 GradGradGradGradGradGradGradGradGradGradGradGradGradGradGradGradGradGrad

 Leave Link  103 at Wed Jun 23 05:26:32 2021, MaxMem=  3355443200 cpu:         0.5
 (Enter /usr/local/gqt/g09/l202.exe)
                          Input orientation:                          
 ---------------------------------------------------------------------
 Center     Atomic      Atomic             Coordinates (Angstroms)
 Number     Number       Type             X           Y           Z
 ---------------------------------------------------------------------
      1          7           0        0.968810    0.782004   -0.003812
      2          7           0       -0.312309    1.027558   -0.002003
      3          6           0       -1.048047   -0.120035   -0.000982
      4          6           0       -0.162360   -1.198513   -0.002740
      5          7           0        1.031595   -0.532549   -0.003908
      6          6           0       -0.758969    2.405810   -0.001901
      7          6           0        2.388969   -2.615462   -0.063544
      8          6           0        2.377340   -1.112152    0.003719
      9          6           0       -3.175134   -1.466828    0.001850
     10          6           0       -2.539728   -0.087766    0.001405
     11          1           0       -1.840900    2.423223   -0.000758
     12          1           0       -0.389314    2.909906    0.884969
     13          1           0       -0.391161    2.909483   -0.889790
     14          1           0        3.426475   -2.944931   -0.056389
     15          1           0        1.878503   -3.058107    0.786046
     16          1           0        1.916578   -2.978244   -0.971437
     17          1           0        2.917844   -0.689194   -0.841226
     18          1           0        2.877710   -0.767199    0.907145
     19          1           0       -4.259439   -1.377788    0.004046
     20          1           0       -2.880907   -2.035752   -0.876803
     21          1           0       -2.877427   -2.036871    0.878623
     22          1           0       -2.889500    0.469582    0.873094
     23          1           0       -2.892426    0.470408   -0.868570
 ---------------------------------------------------------------------
                    Distance matrix (angstroms):
                    1          2          3          4          5
     1  N    0.000000
     2  N    1.304440   0.000000
     3  C    2.209388   1.363189   0.000000
     4  C    2.280788   2.231116   1.395550   0.000000
     5  N    1.316051   2.059130   2.120162   1.367128   0.000000
     6  C    2.371069   1.448821   2.542333   3.653366   3.440941
     7  C    3.682825   4.535668   4.247841   2.919028   2.486876
     8  C    2.360475   3.436947   3.566174   2.541177   1.465275
     9  C    4.714822   3.797071   2.517610   3.024702   4.309232
    10  C    3.614742   2.491055   1.492031   2.624053   3.598917
    11  H    3.253932   2.069896   2.663977   3.991800   4.121628
    12  H    2.676266   2.082278   3.224807   4.209351   3.828783
    13  H    2.675939   2.082312   3.224820   4.208901   3.828395
    14  H    4.464631   5.455468   5.291924   3.991565   3.399676
    15  H    4.024658   4.702482   4.220945   2.871480   2.778439
    16  H    3.996752   4.685530   4.230856   2.903067   2.775019
    17  H    2.581554   3.753055   4.093684   3.232665   2.069680
    18  H    2.621788   3.771462   4.081064   3.202491   2.072008
    19  H    5.656796   4.622290   3.448913   4.101004   5.358127
    20  H    4.849967   4.092291   2.792205   2.975811   4.281265
    21  H    4.849566   4.092196   2.791881   2.975102   4.280455
    22  H    3.969021   2.778318   2.121934   3.314652   4.141060
    23  H    3.969135   2.778193   2.122042   3.314848   4.141437
                    6          7          8          9         10
     6  C    0.000000
     7  C    5.926760   0.000000
     8  C    4.713016   1.504859   0.000000
     9  C    4.564558   5.681803   5.563791   0.000000
    10  C    3.064152   5.539452   5.022642   1.518406   0.000000
    11  H    1.082071   6.579064   5.503857   4.112503   2.606420
    12  H    1.085033   6.256854   4.960638   5.262745   3.793547
    13  H    1.085042   6.239938   4.963518   5.262854   3.793951
    14  H    6.793477   1.088586   2.112671   6.765310   6.615309
    15  H    6.118129   1.085502   2.155833   5.355966   5.381389
    16  H    6.089875   1.085833   2.155349   5.399740   5.399995
    17  H    4.878777   2.143597   1.088563   6.199990   5.554892
    18  H    4.911189   2.144104   1.088825   6.160029   5.534494
    19  H    5.154506   6.762968   6.642093   1.087957   2.149784
    20  H    4.999555   5.363678   5.410871   1.087325   2.163863
    21  H    5.000060   5.381206   5.406769   1.087340   2.163924
    22  H    3.008946   6.185227   5.567522   2.142508   1.092163
    23  H    3.008077   6.169587   5.570980   2.142531   1.092158
[...]
 002455,0.27290845,-0.00007496,0.00109967,-0.00060307,0.00075376,-0.000
 15918,0.00020351,0.00012545,-0.00020233,0.00025877,-0.00035602,-0.0003
 3025,-0.00013853,0.00117447,-0.00145465,-0.00302854,0.00002733,0.00015
 971,-0.00000930,0.10929589,-0.10418693,0.02433177,0.01156173,-0.007310
 04,0.00497885,0.00001870,-0.00002669,0.00000914,-0.00003773,0.00000050
 ,0.00005812,0.00001033,-0.00004509,0.00000537,-0.00000294,-0.00001012,
 0.00000111,0.00001531,-0.00005541,0.00001918,-0.12110701,0.10974545,0.
 00016774,0.00086104,-0.00086049,0.00104940,-0.00068299,0.00047536,-0.0
 0004786,0.00001152,0.00022483,0.00000230,-0.00052966,-0.00003677,0.002
 62895,-0.00405964,-0.00467964,0.00004913,0.00026030,0.00011074,-0.0490
 5798,0.02583105,-0.05810259,0.02405826,-0.01166425,0.00666442,0.000022
 11,-0.00003310,0.00001354,-0.00003628,-0.00002525,0.00000290,0.0000091
 5,-0.00004599,-0.00000272,-0.00000247,-0.00001999,-0.00000055,0.000029
 05,-0.00010845,0.00003677,0.05032558,-0.02536891,0.06085150,-0.0002074
 5,0.00043619,-0.00036881,0.00030740,-0.00017538,0.00004746,-0.00003028
 ,-0.00010979,0.00006157,0.00035698,-0.00009664,0.00005555,0.00134295,-
 0.00019677,-0.00029690,-0.00000124,0.00003826,-0.00000585,-0.16818427,
 -0.12613557,-0.05740715,0.00715632,0.00980859,0.00475314,0.00000868,-0
 .00000107,0.00000261,-0.00001282,0.00000695,0.00004104,0.00000453,-0.0
 0001435,0.00000099,0.00000119,-0.00000627,0.00000186,0.00000459,-0.000
 01744,0.00000719,-0.01657773,-0.01952205,-0.00755559,0.17843273,0.0001
 9844,-0.00012936,0.00006064,0.00011061,0.00015144,-0.00014764,0.000201
 82,-0.00014172,0.00013447,0.00011756,0.00014050,0.00035779,-0.00161528
 ,0.00046601,0.00063879,0.00002551,-0.00000234,-0.00003648,-0.12461442,
 -0.17584817,-0.05695405,-0.00910209,-0.01137724,-0.00543552,-0.0000030
 3,0.00000245,-0.00000098,-0.00000425,0.00001791,0.00002338,-0.00000215
 ,-0.00000461,0.00000302,-0.00000305,0.00000852,-0.00000491,0.00000216,
 0.00000773,-0.00000127,0.01029882,0.01164554,0.00532235,0.13609887,0.1
 8786887,0.00008038,0.00007232,0.00016085,0.00028477,0.00021723,-0.0000
 4401,0.00027935,-0.00025060,0.00009603,-0.00022613,0.00022867,0.000245
 19,-0.00113490,0.00108892,0.00114646,0.00002781,0.00001246,-0.00003900
 ,-0.05483805,-0.05636750,-0.07316851,-0.02017876,-0.02053431,-0.010904
 86,-0.00000280,-0.00000014,-0.00000058,0.00000694,-0.00000712,0.000004
 42,0.00000216,-0.00001136,0.00000608,-0.00000397,0.00001039,-0.0000048
 5,0.00000403,0.00000609,-0.00000191,-0.00330042,-0.00395831,-0.0028744
 1,0.06021772,0.06583026,0.07985096,0.00012453,0.00035638,-0.00008335,0
 .00000939,0.00007643,-0.00001951,0.00004518,-0.00003005,0.00002709,-0.
 00038762,-0.00002018,-0.00008467,0.00112169,-0.00176320,-0.00015119,0.
 00001879,0.00000390,-0.00001016,-0.05355281,-0.02818967,0.02864259,-0.
 00349172,-0.00665843,0.00898617,0.00000012,-0.00000425,0.00000534,-0.0
 0000426,0.00000631,0.00001672,0.00000403,-0.00000259,0.00000090,-0.000
 00347,0.00000750,0.00000363,-0.00000038,-0.00000514,-0.00000158,0.0056
 5277,0.01853386,-0.02091734,-0.00287508,-0.01355289,0.01647981,0.05275
 176,-0.00024468,0.00011536,0.00005708,-0.00025647,-0.00007214,-0.00006
 542,-0.00001599,0.00017782,-0.00000027,0.00015447,0.00009281,0.0002868
 5,-0.00091277,0.00142670,0.00027139,-0.00000769,-0.00003692,-0.0000418
 4,-0.02838255,-0.17237830,0.13538156,0.00332802,0.01083804,-0.01419339
 ,-0.00000563,0.00000450,-0.00000295,0.00000396,-0.00000410,0.00001407,
 -0.00000090,-0.00000454,0.00000343,0.00000354,-0.00000186,-0.00000218,
 -0.00000570,0.00001989,-0.00000115,-0.00328995,-0.00957380,0.00913235,
 -0.00121296,-0.01369577,0.01543646,0.02963228,0.18287938,0.00000598,0.
 00000174,0.00038777,0.00041324,-0.00047952,0.00011776,-0.00013296,0.00
 002763,-0.00006445,0.00033850,-0.00016171,0.00025226,-0.00133243,0.000
 92247,0.00134163,0.00002272,0.00004737,-0.00004496,0.02962731,0.132605
 51,-0.19062876,0.00392593,0.01945073,-0.02257273,0.00000377,-0.0000027
 0,0.00000245,-0.00000789,-0.00001614,-0.00002650,0.00000606,-0.0000349
 0,0.00000636,0.00000081,-0.00001114,0.00000267,0.00000374,-0.00001221,
 0.00000941,0.00094155,0.00269488,-0.00410872,-0.00105931,-0.00759454,0
 .00826222,-0.03412436,-0.14404385,0.20924844,0.00232428,-0.00319536,0.
 00119524,-0.00085853,0.00040276,0.00011901,-0.00153093,0.00050480,0.00
 046702,-0.00161615,0.00337266,-0.00257352,-0.03012173,-0.02140190,-0.0
 0893167,0.00005392,-0.00012283,0.00008619,0.00933396,0.00911543,0.0043
 3247,-0.16228220,-0.11783867,-0.05599264,0.00000732,0.00004474,-0.0000
 2474,0.00011080,0.00040905,-0.00000269,-0.00001880,0.00008051,-0.00000
 623,-0.00001927,0.00005518,-0.00002824,-0.00000025,0.00004503,-0.00002
 004,0.00045488,-0.00039187,-0.00062145,-0.00012101,0.00133248,0.002828
 06,0.00027468,-0.00035816,-0.00051915,0.18583398,0.00077250,0.00078791
 ,-0.00039844,0.00025571,0.00060376,0.00041004,0.00129078,0.00009004,-0
 .00004600,0.00026705,-0.00126292,0.00071095,0.01744496,0.01077372,0.00
 663657,-0.00002172,-0.00001726,-0.00018573,-0.00829511,-0.00959465,-0.
 00426486,-0.13103747,-0.18668156,-0.05955058,-0.00001836,-0.00000847,0
 .00000136,0.00001468,-0.00019566,-0.00005730,0.00000556,-0.00002889,0.
 00000376,0.00000637,-0.00000758,-0.00000311,-0.00001388,0.00001716,0.0
 0000242,0.00018185,0.00012836,0.00015663,0.00148969,0.00009132,-0.0023
 9310,0.00039616,0.00104217,0.00014668,0.12992132,0.19685587,0.00062012
 ,-0.00094054,0.00095571,-0.00038342,0.00032211,-0.00034628,0.00001929,
 -0.00020704,0.00033223,0.00081826,0.00053785,0.00032505,-0.00551045,-0
 .00281472,-0.00245779,-0.00000327,-0.00006115,0.00001504,-0.01757283,-
 0.02102084,-0.01007515,-0.05606457,-0.05622352,-0.07625723,0.00001495,
 -0.00000015,0.00000403,0.00003016,0.00002004,-0.00009809,0.00001146,0.
 00003420,0.00000436,-0.00000824,0.00001830,0.00000403,0.00000057,0.000
 01988,-0.00000977,0.00012779,0.00056512,0.00115380,0.00225907,-0.00251
 332,-0.00389596,-0.00067462,0.00082724,0.00116077,0.06032130,0.0665901
 4,0.08005328,-0.00416556,-0.00190522,-0.00211333,-0.00141849,0.0029367
 1,-0.00046860,0.00085803,-0.00036031,-0.00030717,0.00132598,0.00079041
 ,0.00066999,-0.00118466,0.02989340,-0.02483980,-0.00045620,-0.00013829
 ,0.00073385,-0.00146433,-0.00716408,0.00777681,-0.05677800,-0.03858608
 ,0.03702310,-0.00003288,0.00003950,-0.00000248,0.00001555,-0.00007586,
 0.00006330,-0.00007988,0.00029467,-0.00008466,0.00001988,-0.00001962,0
 .00000738,-0.00002196,0.00002838,-0.00003047,0.00017866,-0.00010034,-0
 .00018868,0.00038619,0.00051828,-0.00053020,0.00029936,0.00158455,0.00
 188007,-0.00155314,-0.01273880,0.01598975,0.06410441,0.00339406,0.0004
 4079,0.00173812,0.00044493,-0.00101528,0.00004991,0.00010060,0.0000266
 4,-0.00059500,-0.00221780,0.00043575,-0.00037376,-0.00002974,-0.016165
 03,0.01154397,0.00022746,0.00022981,-0.00013970,0.00275017,0.01202281,
 -0.01372172,-0.02829066,-0.17168012,0.13502174,0.00002770,-0.00004834,
 0.00002435,-0.00000675,0.00003642,-0.00001676,0.00004570,-0.00009371,0
 .00004558,-0.00001629,0.00001719,0.00002179,0.00001991,-0.00006230,0.0
 0001863,-0.00037245,0.00057196,0.00096081,-0.00037856,0.00079613,0.000
 61440,0.00121221,-0.00082907,-0.00353224,-0.00202662,-0.01257796,0.014
 83128,0.02503527,0.18787758,-0.00018236,-0.00144096,0.00007041,-0.0005
 3612,-0.00000986,0.00006501,-0.00010292,0.00030537,0.00012873,0.001545
 34,-0.00062115,0.00074986,-0.00012640,0.00530598,-0.00296063,-0.000050
 51,-0.00016170,0.00005466,0.00579207,0.01713948,-0.02156122,0.02872716
 ,0.13647507,-0.19730875,-0.00000094,0.00000851,-0.00000331,-0.00000211
 ,-0.00003476,-0.00006137,-0.00001152,0.00003311,-0.00000972,0.00000203
 ,-0.00001017,-0.00000229,-0.00000726,0.00003055,-0.00000944,-0.0000014
 1,-0.00002108,0.00112597,-0.00075591,0.00031624,0.00116288,0.00190458,
 -0.00305625,-0.00334986,-0.00061243,-0.00776498,0.00912572,-0.03557393
 ,-0.14648257,0.21276712,-0.00094571,-0.00059255,0.00007628,-0.00068236
 ,0.00071479,-0.00021427,0.00125775,-0.00327219,0.00103284,-0.00060376,
 0.00008470,-0.00009269,0.00005724,-0.00009992,0.00003431,-0.00009133,0
 .00022738,-0.00006378,-0.00004517,0.00000994,-0.00004076,0.00016551,-0
 .00011904,0.00005287,-0.31105446,0.04094943,-0.02886552,-0.01467529,0.
 00350615,-0.00187323,0.00002456,-0.00001379,0.00001502,-0.00000851,-0.
 00003755,0.00000918,0.00002724,-0.00001082,-0.00000610,-0.00002209,0.0
 0001671,0.00002140,0.00000541,-0.00000421,-0.00000161,0.00000234,-0.00
 000333,0.00000506,-0.00003937,0.00000395,0.00000109,-0.00001547,0.0000
 2010,0.00000079,0.33720531,-0.00062520,-0.00027968,-0.00010424,-0.0017
 2288,0.00057642,-0.00006763,-0.00093995,-0.00549553,0.00179328,0.00093
 532,-0.00018421,0.00012958,-0.00021643,0.00027609,-0.00002554,-0.00006
 254,0.00025193,-0.00006163,-0.00002126,0.00000844,-0.00001824,0.000062
 00,-0.00003931,0.00002530,0.04369153,-0.05339795,0.00440076,-0.0300003
 7,0.00328358,-0.00331767,0.00001257,-0.00001505,-0.00000372,0.00000949
 ,-0.00005037,0.00001151,0.00001331,-0.00000616,0.00000986,-0.00000735,
 0.00000969,0.00001036,-0.00000101,0.00000317,0.00000409,0.00000203,-0.
 00000138,-0.00000072,-0.00000566,0.00000738,0.00000071,-0.00002233,0.0
 0001791,-0.00000859,-0.04298275,0.05798383,0.00015104,-0.00004393,-0.0
 0031795,0.00048737,0.00002298,0.00055226,0.00030792,0.00166599,0.00012
 821,-0.00031443,0.00010509,0.00014252,0.00005981,0.00001056,0.00025556
 ,0.00001639,-0.00006031,0.00002847,0.00000280,-0.00000531,0.00000296,-
 0.00001171,0.00001506,0.00000631,-0.02973148,0.00426168,-0.05090580,0.
 00850443,-0.00132233,-0.00069318,-0.00000563,-0.00000095,-0.00000175,-
 0.00000215,0.00001101,-0.00001069,0.00000051,0.00000445,-0.00000794,0.
 00000197,-0.00000121,-0.00000198,0.00000101,0.00000099,-0.00000017,-0.
 00000039,0.00000042,0.00000110,0.00000206,-0.00000418,0.00000183,0.000
 00257,-0.00000670,0.00000505,0.03124108,-0.00642671,0.04970769,0.00036
 191,0.00010846,0.00004617,-0.00010103,-0.00011317,0.00020060,0.0008798
 6,-0.00009705,-0.00074571,0.00018405,0.00016186,-0.00004923,-0.0000218
 4,0.00008763,0.00012954,0.00000466,-0.00008873,-0.00003409,0.00000967,
 -0.00000470,0.00000420,-0.00003399,0.00001417,-0.00002683,-0.06819591,
 0.05901362,0.04746175,0.00405512,-0.01364808,-0.01119898,0.00000870,0.
 00006033,0.00002533,-0.00002860,0.00003379,0.00000955,0.00000545,0.000
 01180,-0.00002323,0.00000483,-0.00000196,-0.00000336,-0.00000086,0.000
 00527,-0.00000136,-0.00000078,0.00000050,-0.00000010,0.00000369,-0.000
 00086,-0.00000064,0.00000273,-0.00000279,-0.00000151,-0.00737052,0.023
 04909,0.01972826,0.07028411,-0.00006701,0.00022536,-0.00021227,0.00000
 859,-0.00007473,0.00026474,0.00156779,0.00061744,-0.00020280,0.0003719
 4,0.00018476,0.00043896,-0.00026182,0.00023495,-0.00003045,-0.00002993
 ,0.00000345,-0.00003146,-0.00000414,0.00000367,-0.00000308,-0.00000274
 ,-0.00002012,0.00000820,0.05703752,-0.19962153,-0.12353465,0.00735665,
 -0.02229740,-0.01686200,0.00004691,0.00010058,0.00005063,-0.00005134,0
 .00002897,0.00001746,0.00002932,-0.00000243,-0.00005499,-0.00000114,0.
 00000332,0.00000317,-0.00000306,0.00000123,0.00000409,-0.00000013,-0.0
 0000099,-0.00000066,-0.00000571,0.00000435,-0.00000095,-0.00000937,0.0
 0000376,-0.00000205,0.00076004,-0.00310688,-0.00175377,-0.06098152,0.2
 1964189,0.00005175,0.00018903,-0.00013475,-0.00011567,0.00008619,-0.00
 006877,-0.00003048,-0.00062291,0.00016396,0.00071025,-0.00011684,0.000
 31968,-0.00012049,0.00022792,-0.00005006,0.00001248,0.00002954,0.00000
 851,0.00000834,0.00000120,0.00001128,-0.00004415,0.00003974,0.00000727
 ,0.04604323,-0.12481105,-0.14760881,-0.00293732,0.00764276,0.00534446,
 -0.00000975,-0.00001576,-0.00001239,0.00001261,-0.00000728,-0.00000954
 ,0.00000224,0.00002334,0.00000217,0.00000571,-0.00000288,-0.00000471,0
 .00000062,0.00000342,0.00000522,0.00000055,0.00000175,-0.00000338,0.00
 001952,0.00000256,-0.00000191,-0.00000851,-0.00000037,-0.00000652,-0.0
 0117851,0.00457599,0.00224707,-0.05207277,0.13427221,0.15563689,0.0003
 5806,0.00008184,-0.00003022,-0.00009580,-0.00023662,-0.00014541,0.0009
 8252,0.00031852,0.00083122,0.00029312,-0.00002707,0.00009172,-0.000015
 26,0.00004877,-0.00016290,-0.00001670,-0.00004490,0.00006098,0.0000010
 6,0.00000400,0.00000444,-0.00003374,0.00003075,0.00001003,-0.05632231,
 0.01396563,-0.04935190,0.00206544,-0.00462444,0.01703263,0.00000236,0.
 00001523,0.00000676,-0.00002167,0.00001598,-0.00002445,0.00001929,0.00
 005523,-0.00004300,0.00000289,-0.00000170,-0.00000250,-0.00000141,0.00
 000037,0.00000269,0.00000090,-0.00000117,-0.00000071,0.00000509,-0.000
 00049,0.00000183,-0.00000343,-0.00000513,-0.00000080,-0.00432800,0.007
 74668,-0.03016012,0.00081266,-0.00288997,0.00921132,0.05714718,-0.0001
 0950,0.00012184,0.00003580,0.00010005,-0.00026113,-0.00019056,0.001427
 13,0.00094764,-0.00009110,-0.00031820,0.00015280,-0.00015014,-0.000155
 73,-0.00000326,-0.00005189,-0.00004065,0.00002637,0.00005327,-0.000011
 93,0.00000594,-0.00000973,0.00002739,-0.00003974,0.00002044,0.01341468
 ,-0.06590219,0.06785622,0.00498408,-0.00904767,0.02804829,0.00002106,-
 0.00000413,0.00003163,-0.00004232,0.00000486,-0.00004293,0.00005358,0.
 00007710,-0.00007721,-0.00000511,0.00000442,0.00000549,0.00000202,-0.0
 0000056,-0.00000110,0.00000042,-0.00000098,0.00000089,-0.00001509,0.00
 000245,0.00000150,-0.00000022,0.00000589,0.00000146,0.00065787,-0.0023
 9630,0.00424022,-0.00527472,0.00697502,-0.02303101,-0.01207668,0.07263
 457,0.00012358,-0.00030108,-0.00006944,0.00006466,0.00001385,0.0000924
 0,-0.00082108,0.00004614,0.00007576,-0.00066582,0.00037549,0.00043395,
 0.00023927,-0.00021965,0.00012661,0.00000838,-0.00005349,-0.00000085,-
 0.00000074,-0.00000597,-0.00000342,0.00000909,0.00001330,0.00001332,-0
 .04712113,0.06925519,-0.29344914,-0.00070183,0.00165722,-0.00601115,-0
 .00001840,-0.00001902,-0.00001417,0.00001725,-0.00000308,0.00000859,-0
 .00002065,-0.00002751,0.00003230,-0.00000128,-0.00000029,0.00000075,0.
 00000278,-0.00000199,-0.00000401,-0.00000157,-0.00000018,0.00000266,-0
 .00000487,-0.00000296,-0.00000082,0.00000258,-0.00000852,0.00001011,-0
 .00013772,-0.00025044,-0.00153813,-0.00409419,0.00554970,-0.01749130,0
 .05222420,-0.07757693,0.31575230,-0.00311262,0.00078914,-0.00121840,0.
 00349633,0.00143905,-0.00006780,-0.01531475,0.02555498,0.01932820,-0.0
 0210674,-0.00114736,0.00143788,-0.00108282,-0.00074420,-0.00164063,-0.
 00016649,0.00061583,0.00067453,-0.00004606,0.00003308,-0.00003727,0.00
 013468,-0.00044096,-0.00005517,0.00474326,-0.01414002,-0.01100867,-0.0
 7222469,0.06137113,0.04952941,-0.00012886,-0.00068220,-0.00014896,0.00
 013042,-0.00013358,-0.00016346,-0.00001016,-0.00024861,0.00006710,-0.0
 0003660,0.00001812,0.00003332,-0.00000449,-0.00000856,0.00000338,0.000
 00296,-0.00000433,0.00000703,-0.00014987,0.00006633,0.00001638,-0.0000
 1238,0.00003349,0.00001075,0.00060239,0.00045636,-0.00041904,-0.001269
 10,-0.00344667,0.00107644,0.00038738,0.00085813,0.00014588,0.08408877,
 -0.00031058,0.00039609,-0.00021229,-0.00056197,-0.00126822,0.00104560,
 0.00386428,-0.00307287,-0.00041845,0.00020023,0.00077997,-0.00075875,0
 .00049676,-0.00004912,0.00023103,-0.00063370,0.00091480,0.00025971,0.0
 0001400,-0.00000201,0.00001786,-0.00000786,0.00012333,0.00000766,0.007
 38225,-0.02245884,-0.01653382,0.05934775,-0.18671495,-0.11480745,0.000
 29954,-0.00016237,-0.00015238,-0.00003471,0.00005517,-0.00009447,0.000
 10156,-0.00010706,-0.00007732,0.00000826,-0.00000699,-0.00000958,-0.00
 000336,0.00000124,-0.00000013,-0.00000048,0.00000191,-0.00000355,0.000
 04664,-0.00002196,0.00000456,0.00000142,-0.00000904,-0.00000247,-0.000
 06304,0.00128615,-0.00009591,-0.00320971,-0.00392929,0.00184037,0.0007
 1598,0.00108709,0.00029265,-0.06478746,0.20730878,0.00083972,-0.000131
 52,-0.00010804,0.00009501,-0.00050360,0.00103890,-0.00176670,0.0049804
 8,0.00308778,-0.00067946,0.00016185,0.00001117,-0.00011811,0.00032486,
 -0.00052568,-0.00019689,-0.00033681,0.00025291,0.00000210,-0.00000184,
 0.00000122,-0.00007492,0.00001003,-0.00000615,-0.00304868,0.00741591,0
 .00509316,0.04902752,-0.11539377,-0.13854570,0.00028241,0.00040723,0.0
 0006159,-0.00016780,0.00013616,0.00000069,-0.00000735,-0.00017719,-0.0
 0037009,0.00000236,-0.00000312,0.00000052,-0.00000167,0.00000017,-0.00
 000072,-0.00000101,-0.00000109,0.00000294,-0.00001285,0.00000189,0.000
 00060,0.00000134,-0.00000317,0.00000432,-0.00042496,-0.00054737,0.0001
 3466,0.00071518,0.00190634,0.00080647,-0.00047408,-0.00023614,0.000788
 15,-0.05353666,0.12484357,0.14802344,-0.00334602,0.00126131,0.00034820
 ,0.00360083,0.00130172,-0.00024227,-0.01282634,0.00950101,-0.03208523,
 -0.00174508,-0.00153714,-0.00093172,-0.00129012,0.00003926,0.00172754,
 -0.00020455,0.00017389,-0.00093330,-0.00008670,0.00003852,-0.00007051,
 0.00021321,-0.00041201,0.00025818,0.00287698,-0.00524556,0.01727708,-0
 .05838563,0.01553334,-0.05510651,0.00002090,-0.00021819,0.00015581,0.0
 0007602,-0.00000827,0.00018637,0.00003245,-0.00034058,0.00025273,-0.00
 003121,0.00004495,0.00003708,0.00000966,-0.00000026,0.00000109,0.00000
 764,-0.00000504,-0.00000485,-0.00009133,0.00000977,-0.00001397,-0.0000
 0439,0.00003517,-0.00001659,0.00053429,0.00062936,0.00013775,0.0004051
 9,0.00057579,-0.00063740,-0.00123963,-0.00349627,0.00075161,0.00207945
 ,-0.00286580,0.00954552,0.06939438,-0.00078753,0.00046991,-0.00010001,
 -0.00034685,-0.00099115,0.00010240,0.00331301,-0.00260300,0.00383283,0
 .00046895,0.00069249,0.00025662,0.00045470,-0.00045496,-0.00027138,-0.
 00053355,0.00081822,-0.00061069,0.00001710,0.00000488,0.00001571,0.000
 01994,0.00008166,-0.00002003,0.00518048,-0.00939317,0.02777007,0.01421
 301,-0.06259470,0.06339083,0.00018841,0.00001126,-0.00007197,0.0000639
 8,0.00000640,0.00010135,0.00015597,-0.00001252,0.00036839,0.00000256,-
 0.00000715,-0.00000726,-0.00000631,-0.00000229,-0.00000169,-0.00000047
 ,0.00000125,-0.00000401,0.00003127,-0.00000759,0.00000928,-0.00000206,
 -0.00000180,0.00000083,0.00024813,0.00126823,-0.00061714,0.00087678,0.
 00102462,-0.00032789,-0.00309083,-0.00439004,0.00126756,-0.00545170,0.
 00584820,-0.02285286,-0.01501499,0.07023124,-0.00076587,-0.00006094,-0
 .00018218,0.00028557,0.00177912,0.00061403,-0.00264258,0.00043573,-0.0
 0012221,0.00032152,-0.00086369,-0.00006318,-0.00032940,-0.00041331,0.0
 0001273,0.00046693,-0.00004873,0.00018639,-0.00002405,0.00001029,-0.00
 001982,0.00007433,-0.00008440,0.00005200,-0.00056550,0.00190450,-0.006
 23569,-0.05302157,0.06418105,-0.27499207,-0.00004305,0.00001455,-0.000
 29592,0.00015002,-0.00010928,0.00012229,-0.00046217,-0.00036850,0.0001
 1103,-0.00000996,0.00000941,0.00001148,-0.00000144,-0.00000080,-0.0000
 0132,0.00000238,-0.00000403,0.00000090,-0.00002035,0.00000825,0.000006
 55,-0.00000292,0.00000994,0.00000324,0.00040922,-0.00012893,0.00026389
 ,-0.00006858,0.00017362,0.00083915,0.00091827,0.00116353,0.00124553,-0
 .00403421,0.00462356,-0.01975214,0.05936340,-0.07223094,0.29819532\\0.
 00001554,-0.00001032,0.00000472,-0.00000898,0.00000068,0.00000398,0.00
 000027,0.00001008,-0.00000633,-0.00000020,-0.00000568,-0.00000118,-0.0
 0000885,0.00000038,0.00000239,-0.00000026,0.00000068,0.00000442,-0.000
 00355,-0.00000163,0.00000379,-0.00000338,-0.00000050,-0.00000165,-0.00
 000129,0.00000324,-0.00000503,0.00000327,-0.00000012,-0.00000030,0.000
 00268,0.00000137,0.00000341,0.00000573,-0.00000116,0.00000526,0.000006
 35,0.00000301,0.00000192,-0.00000081,-0.00000551,0.00000276,0.00000003
 ,-0.00000089,-0.00000084,0.00000180,-0.00000327,0.00000423,-0.00000157
 ,-0.00000610,0.00000508,-0.00000260,-0.00000544,0.00000206,-0.00000136
 ,0.00000490,-0.00000817,-0.00000157,0.00000405,-0.00000743,-0.00000391
 ,0.00000159,-0.00000693,0.00000077,0.00000482,-0.00000304,0.00000187,0
 .00000581,-0.00000312\\\@


 MYSTERY IS THE WISDOM OF BLOCKHEADS... HORACE WALPOLE 
 Job cpu time:       0 days  2 hours 47 minutes 56.7 seconds.
 File lengths (MBytes):  RWF=    244 Int=      0 D2E=      0 Chk=     14 Scr=      1
 Normal termination of Gaussian 09 at Wed Jun 23 06:47:24 2021.
