 Entering Gaussian System, Link 0=g09
 Input=NHC28.gjf
 Output=NHC28.log
 Initial command:
 /usr/local/gqt/g09/l1.exe "/usr/local/gqt/lixogaussian/Gau-11850.inp" -scrdir="/usr/local/gqt/lixogaussian/"
 Entering Link 1 = /usr/local/gqt/g09/l1.exe PID=     11852.
  
 Copyright (c) 1988,1990,1992,1993,1995,1998,2003,2009,2013,
            Gaussian, Inc.  All Rights Reserved.
  
 This is part of the Gaussian(R) 09 program.  It is based on
 the Gaussian(R) 03 system (copyright 2003, Gaussian, Inc.),
 the Gaussian(R) 98 system (copyright 1998, Gaussian, Inc.),
 the Gaussian(R) 94 system (copyright 1995, Gaussian, Inc.),
 the Gaussian 92(TM) system (copyright 1992, Gaussian, Inc.),
 the Gaussian 90(TM) system (copyright 1990, Gaussian, Inc.),
 the Gaussian 88(TM) system (copyright 1988, Gaussian, Inc.),
 the Gaussian 86(TM) system (copyright 1986, Carnegie Mellon
 University), and the Gaussian 82(TM) system (copyright 1983,
 Carnegie Mellon University). Gaussian is a federally registered
 trademark of Gaussian, Inc.
  
 This software contains proprietary and confidential information,
 including trade secrets, belonging to Gaussian, Inc.
  
 This software is provided under written license and may be
 used, copied, transmitted, or stored only in accord with that
 written license.
  
 The following legend is applicable only to US Government
 contracts under FAR:
  
                    RESTRICTED RIGHTS LEGEND
  
 Use, reproduction and disclosure by the US Government is
 subject to restrictions as set forth in subparagraphs (a)
 and (c) of the Commercial Computer Software - Restricted
 Rights clause in FAR 52.227-19.
  
 Gaussian, Inc.
 340 Quinnipiac St., Bldg. 40, Wallingford CT 06492
  
  
 ---------------------------------------------------------------
 Warning -- This program may not be used in any manner that
 competes with the business of Gaussian, Inc. or will provide
 assistance to any competitor of Gaussian, Inc.  The licensee
 of this program is prohibited from giving any competitor of
 Gaussian, Inc. access to this program.  By using this program,
 the user acknowledges that Gaussian, Inc. is engaged in the
 business of creating and licensing software in the field of
 computational chemistry and represents and warrants to the
 licensee that it is not a competitor of Gaussian, Inc. and that
 it will not use this program in any manner prohibited above.
 ---------------------------------------------------------------
  

 Cite this work as:
 Gaussian 09, Revision D.01,
 M. J. Frisch, G. W. Trucks, H. B. Schlegel, G. E. Scuseria, 
 M. A. Robb, J. R. Cheeseman, G. Scalmani, V. Barone, B. Mennucci, 
 G. A. Petersson, H. Nakatsuji, M. Caricato, X. Li, H. P. Hratchian, 
 A. F. Izmaylov, J. Bloino, G. Zheng, J. L. Sonnenberg, M. Hada, 
 M. Ehara, K. Toyota, R. Fukuda, J. Hasegawa, M. Ishida, T. Nakajima, 
 Y. Honda, O. Kitao, H. Nakai, T. Vreven, J. A. Montgomery, Jr., 
 J. E. Peralta, F. Ogliaro, M. Bearpark, J. J. Heyd, E. Brothers, 
 K. N. Kudin, V. N. Staroverov, T. Keith, R. Kobayashi, J. Normand, 
 K. Raghavachari, A. Rendell, J. C. Burant, S. S. Iyengar, J. Tomasi, 
 M. Cossi, N. Rega, J. M. Millam, M. Klene, J. E. Knox, J. B. Cross, 
 V. Bakken, C. Adamo, J. Jaramillo, R. Gomperts, R. E. Stratmann, 
 O. Yazyev, A. J. Austin, R. Cammi, C. Pomelli, J. W. Ochterski, 
 R. L. Martin, K. Morokuma, V. G. Zakrzewski, G. A. Voth, 
 P. Salvador, J. J. Dannenberg, S. Dapprich, A. D. Daniels, 
 O. Farkas, J. B. Foresman, J. V. Ortiz, J. Cioslowski, 
 and D. J. Fox, Gaussian, Inc., Wallingford CT, 2013.
 
 ******************************************
 Gaussian 09:  ES64L-G09RevD.01 24-Apr-2013
                 5-Oct-2021 
 ******************************************
 %nprocshared=16
 Will use up to   16 processors via shared memory.
 %mem=50GB
 %chk=NHC28.chk
 ----------------------------------------------------------
 #p opt freq n12sx/6-311+g(d,p) scrf=(iefpcm,solvent=water)
 ----------------------------------------------------------
 1/14=-1,18=20,19=15,26=3,38=1/1,3;
 2/9=110,12=2,17=6,18=5,40=1/2;
 3/5=4,6=6,7=111,11=2,16=1,25=1,30=1,70=2201,71=1,72=1,74=-69/1,2,3;
 4//1;
 5/5=2,38=5,53=1/2;
 6/7=2,8=2,9=2,10=2,28=1/1;
 7//1,2,3,16;
 1/14=-1,18=20,19=15,26=3/3(2);
 2/9=110/2;
 99//99;
 2/9=110/2;
 3/5=4,6=6,7=111,11=2,16=1,25=1,30=1,70=2205,71=1,72=1,74=-69/1,2,3;
 4/5=5,16=3,69=1/1;
 5/5=2,38=5,53=1/2;
 7//1,2,3,16;
 1/14=-1,18=20,19=15,26=3/3(-5);
 2/9=110/2;
 6/7=2,8=2,9=2,10=2,19=2,28=1/1;
 99/9=1/99;
 Leave Link    1 at Tue Oct  5 00:44:59 2021, MaxMem=  6710886400 cpu:         0.8
 (Enter /usr/local/gqt/g09/l101.exe)
 -----
 TITLE
 -----
 Symbolic Z-matrix:
 Charge =  0 Multiplicity = 1
 7                     1.04427   0.60789  -0.00029 
 6                    -0.29637   0.44726  -0.00015 
 6                    -0.55014  -0.94265   0.00008 
 6                     0.69586  -1.65475   0.00023 
 7                     1.58981  -0.67211  -0.00001 
 6                    -1.32647   1.39116  -0.0002 
 6                    -2.61633   0.90661  -0.00015 
 6                    -2.89669  -0.47185   0.00007 
 6                    -1.87425  -1.39428   0.00015 
 6                     1.82459   1.81647   0.00044 
 6                     3.0294   -0.80283  -0.00026 
 1                    -1.13287   2.45297  -0.00029 
 1                    -3.43789   1.60803  -0.00023 
 1                    -3.92492  -0.80043   0.00011 
 1                    -2.0811   -2.45484   0.00031 
 1                     1.13789   2.65521   0.0002 
 1                     2.44743   1.88524   0.88932 
 1                     2.44849   1.88561  -0.88766 
 1                     3.30117  -1.25596  -0.94364 
 1                     3.50711   0.17009   0.08445 
 1                     3.36104  -1.44005   0.81578 
 
 NAtoms=     21 NQM=       21 NQMF=       0 NMMI=      0 NMMIF=      0
                NMic=       0 NMicF=      0.
                    Isotopes and Nuclear Properties:
 (Nuclear quadrupole moments (NQMom) in fm**2, nuclear magnetic moments (NMagM)
  in nuclear magnetons)

  Atom         1           2           3           4           5           6           7           8           9          10
 IAtWgt=          14          12          12          12          14          12          12          12          12          12
 AtmWgt=  14.0030740  12.0000000  12.0000000  12.0000000  14.0030740  12.0000000  12.0000000  12.0000000  12.0000000  12.0000000
 NucSpn=           2           0           0           0           2           0           0           0           0           0
 AtZEff=   0.0000000   0.0000000   0.0000000   0.0000000   0.0000000   0.0000000   0.0000000   0.0000000   0.0000000   0.0000000
 NQMom=    2.0440000   0.0000000   0.0000000   0.0000000   2.0440000   0.0000000   0.0000000   0.0000000   0.0000000   0.0000000
 NMagM=    0.4037610   0.0000000   0.0000000   0.0000000   0.4037610   0.0000000   0.0000000   0.0000000   0.0000000   0.0000000
 AtZNuc=   7.0000000   6.0000000   6.0000000   6.0000000   7.0000000   6.0000000   6.0000000   6.0000000   6.0000000   6.0000000

  Atom        11          12          13          14          15          16          17          18          19          20
 IAtWgt=          12           1           1           1           1           1           1           1           1           1
 AtmWgt=  12.0000000   1.0078250   1.0078250   1.0078250   1.0078250   1.0078250   1.0078250   1.0078250   1.0078250   1.0078250
 NucSpn=           0           1           1           1           1           1           1           1           1           1
 AtZEff=   0.0000000   0.0000000   0.0000000   0.0000000   0.0000000   0.0000000   0.0000000   0.0000000   0.0000000   0.0000000
 NQMom=    0.0000000   0.0000000   0.0000000   0.0000000   0.0000000   0.0000000   0.0000000   0.0000000   0.0000000   0.0000000
 NMagM=    0.0000000   2.7928460   2.7928460   2.7928460   2.7928460   2.7928460   2.7928460   2.7928460   2.7928460   2.7928460
 AtZNuc=   6.0000000   1.0000000   1.0000000   1.0000000   1.0000000   1.0000000   1.0000000   1.0000000   1.0000000   1.0000000

  Atom        21
 IAtWgt=           1
 AtmWgt=   1.0078250
 NucSpn=           1
 AtZEff=   0.0000000
 NQMom=    0.0000000
 NMagM=    2.7928460
 AtZNuc=   1.0000000
 Leave Link  101 at Tue Oct  5 00:45:00 2021, MaxMem=  6710886400 cpu:         6.9
 (Enter /usr/local/gqt/g09/l103.exe)

 GradGradGradGradGradGradGradGradGradGradGradGradGradGradGradGradGradGrad
 Berny optimization.
 Initialization pass.
                           ----------------------------
                           !    Initial Parameters    !
                           ! (Angstroms and Degrees)  !
 --------------------------                            --------------------------
 ! Name  Definition              Value          Derivative Info.                !
 --------------------------------------------------------------------------------
 ! R1    R(1,2)                  1.3502         estimate D2E/DX2                !
 ! R2    R(1,5)                  1.3914         estimate D2E/DX2                !
 ! R3    R(1,10)                 1.4386         estimate D2E/DX2                !
 ! R4    R(2,3)                  1.4129         estimate D2E/DX2                !
 ! R5    R(2,6)                  1.3972         estimate D2E/DX2                !
 ! R6    R(3,4)                  1.4351         estimate D2E/DX2                !
 ! R7    R(3,9)                  1.399          estimate D2E/DX2                !
 ! R8    R(4,5)                  1.3284         estimate D2E/DX2                !
 ! R9    R(5,11)                 1.4455         estimate D2E/DX2                !
 ! R10   R(6,7)                  1.3779         estimate D2E/DX2                !
 ! R11   R(6,12)                 1.0793         estimate D2E/DX2                !
 ! R12   R(7,8)                  1.4067         estimate D2E/DX2                !
 ! R13   R(7,13)                 1.0802         estimate D2E/DX2                !
 ! R14   R(8,9)                  1.377          estimate D2E/DX2                !
 ! R15   R(8,14)                 1.0795         estimate D2E/DX2                !
 ! R16   R(9,15)                 1.0805         estimate D2E/DX2                !
 ! R17   R(10,16)                1.084          estimate D2E/DX2                !
 ! R18   R(10,17)                1.0875         estimate D2E/DX2                !
 ! R19   R(10,18)                1.0875         estimate D2E/DX2                !
 ! R20   R(11,19)                1.0813         estimate D2E/DX2                !
 ! R21   R(11,20)                1.0872         estimate D2E/DX2                !
 ! R22   R(11,21)                1.0872         estimate D2E/DX2                !
 ! A1    A(2,1,5)              106.2516         estimate D2E/DX2                !
 ! A2    A(2,1,10)             129.6803         estimate D2E/DX2                !
 ! A3    A(5,1,10)             124.0681         estimate D2E/DX2                !
 ! A4    A(1,2,3)              107.179          estimate D2E/DX2                !
 ! A5    A(1,2,6)              130.6682         estimate D2E/DX2                !
 ! A6    A(3,2,6)              122.1527         estimate D2E/DX2                !
 ! A7    A(2,3,4)              109.4014         estimate D2E/DX2                !
 ! A8    A(2,3,9)              119.1802         estimate D2E/DX2                !
 ! A9    A(4,3,9)              131.4184         estimate D2E/DX2                !
 ! A10   A(3,4,5)              102.5458         estimate D2E/DX2                !
 ! A11   A(1,5,4)              114.6222         estimate D2E/DX2                !
 ! A12   A(1,5,11)             118.2722         estimate D2E/DX2                !
 ! A13   A(4,5,11)             127.1056         estimate D2E/DX2                !
 ! A14   A(2,6,7)              116.9112         estimate D2E/DX2                !
 ! A15   A(2,6,12)             122.1661         estimate D2E/DX2                !
 ! A16   A(7,6,12)             120.9226         estimate D2E/DX2                !
 ! A17   A(6,7,8)              122.0857         estimate D2E/DX2                !
 ! A18   A(6,7,13)             118.9215         estimate D2E/DX2                !
 ! A19   A(8,7,13)             118.9928         estimate D2E/DX2                !
 ! A20   A(7,8,9)              120.5599         estimate D2E/DX2                !
 ! A21   A(7,8,14)             119.2183         estimate D2E/DX2                !
 ! A22   A(9,8,14)             120.2218         estimate D2E/DX2                !
 ! A23   A(3,9,8)              119.1102         estimate D2E/DX2                !
 ! A24   A(3,9,15)             119.8693         estimate D2E/DX2                !
 ! A25   A(8,9,15)             121.0204         estimate D2E/DX2                !
 ! A26   A(1,10,16)            107.8436         estimate D2E/DX2                !
 ! A27   A(1,10,17)            111.357          estimate D2E/DX2                !
 ! A28   A(1,10,18)            111.3563         estimate D2E/DX2                !
 ! A29   A(16,10,17)           108.3041         estimate D2E/DX2                !
 ! A30   A(16,10,18)           108.303          estimate D2E/DX2                !
 ! A31   A(17,10,18)           109.5646         estimate D2E/DX2                !
 ! A32   A(5,11,19)            106.7596         estimate D2E/DX2                !
 ! A33   A(5,11,20)            110.8951         estimate D2E/DX2                !
 ! A34   A(5,11,21)            110.896          estimate D2E/DX2                !
 ! A35   A(19,11,20)           109.4253         estimate D2E/DX2                !
 ! A36   A(19,11,21)           109.4253         estimate D2E/DX2                !
 ! A37   A(20,11,21)           109.3903         estimate D2E/DX2                !
 ! D1    D(5,1,2,3)             -0.006          estimate D2E/DX2                !
 ! D2    D(5,1,2,6)            179.9946         estimate D2E/DX2                !
 ! D3    D(10,1,2,3)          -179.9494         estimate D2E/DX2                !
 ! D4    D(10,1,2,6)             0.0512         estimate D2E/DX2                !
 ! D5    D(2,1,5,4)              0.0032         estimate D2E/DX2                !
 ! D6    D(2,1,5,11)           179.9925         estimate D2E/DX2                !
 ! D7    D(10,1,5,4)           179.9506         estimate D2E/DX2                !
 ! D8    D(10,1,5,11)           -0.0602         estimate D2E/DX2                !
 ! D9    D(2,1,10,16)           -0.0552         estimate D2E/DX2                !
 ! D10   D(2,1,10,17)          118.6389         estimate D2E/DX2                !
 ! D11   D(2,1,10,18)         -118.7475         estimate D2E/DX2                !
 ! D12   D(5,1,10,16)         -179.9895         estimate D2E/DX2                !
 ! D13   D(5,1,10,17)          -61.2954         estimate D2E/DX2                !
 ! D14   D(5,1,10,18)           61.3182         estimate D2E/DX2                !
 ! D15   D(1,2,3,4)              0.0069         estimate D2E/DX2                !
 ! D16   D(1,2,3,9)           -179.9945         estimate D2E/DX2                !
 ! D17   D(6,2,3,4)           -179.9936         estimate D2E/DX2                !
 ! D18   D(6,2,3,9)              0.005          estimate D2E/DX2                !
 ! D19   D(1,2,6,7)            179.9936         estimate D2E/DX2                !
 ! D20   D(1,2,6,12)            -0.0061         estimate D2E/DX2                !
 ! D21   D(3,2,6,7)             -0.0058         estimate D2E/DX2                !
 ! D22   D(3,2,6,12)           179.9946         estimate D2E/DX2                !
 ! D23   D(2,3,4,5)             -0.0048         estimate D2E/DX2                !
 ! D24   D(9,3,4,5)            179.9968         estimate D2E/DX2                !
 ! D25   D(2,3,9,8)             -0.0036         estimate D2E/DX2                !
 ! D26   D(2,3,9,15)           179.9995         estimate D2E/DX2                !
 ! D27   D(4,3,9,8)            179.9946         estimate D2E/DX2                !
 ! D28   D(4,3,9,15)            -0.0022         estimate D2E/DX2                !
 ! D29   D(3,4,5,1)              0.001          estimate D2E/DX2                !
 ! D30   D(3,4,5,11)          -179.9871         estimate D2E/DX2                !
 ! D31   D(1,5,11,19)         -114.3208         estimate D2E/DX2                !
 ! D32   D(1,5,11,20)            4.8063         estimate D2E/DX2                !
 ! D33   D(1,5,11,21)          126.5515         estimate D2E/DX2                !
 ! D34   D(4,5,11,19)           65.6669         estimate D2E/DX2                !
 ! D35   D(4,5,11,20)         -175.206          estimate D2E/DX2                !
 ! D36   D(4,5,11,21)          -53.4608         estimate D2E/DX2                !
 ! D37   D(2,6,7,8)              0.0054         estimate D2E/DX2                !
 ! D38   D(2,6,7,13)          -179.9974         estimate D2E/DX2                !
 ! D39   D(12,6,7,8)          -179.995          estimate D2E/DX2                !
 ! D40   D(12,6,7,13)            0.0023         estimate D2E/DX2                !
 ! D41   D(6,7,8,9)             -0.0043         estimate D2E/DX2                !
 ! D42   D(6,7,8,14)           179.9998         estimate D2E/DX2                !
 ! D43   D(13,7,8,9)           179.9984         estimate D2E/DX2                !
 ! D44   D(13,7,8,14)            0.0026         estimate D2E/DX2                !
 ! D45   D(7,8,9,3)              0.0033         estimate D2E/DX2                !
 ! D46   D(7,8,9,15)          -179.9998         estimate D2E/DX2                !
 ! D47   D(14,8,9,3)           179.9991         estimate D2E/DX2                !
 ! D48   D(14,8,9,15)           -0.004          estimate D2E/DX2                !
 --------------------------------------------------------------------------------
 Trust Radius=3.00D-01 FncErr=1.00D-07 GrdErr=1.00D-06
 Number of steps in this run=    117 maximum allowed number of steps=    126.
 GradGradGradGradGradGradGradGradGradGradGradGradGradGradGradGradGradGrad

 Leave Link  103 at Tue Oct  5 00:45:00 2021, MaxMem=  6710886400 cpu:         0.1
 (Enter /usr/local/gqt/g09/l202.exe)
                          Input orientation:                          
 ---------------------------------------------------------------------
 Center     Atomic      Atomic             Coordinates (Angstroms)
 Number     Number       Type             X           Y           Z
 ---------------------------------------------------------------------
      1          7           0        1.044274    0.607888   -0.000291
      2          6           0       -0.296374    0.447262   -0.000145
      3          6           0       -0.550139   -0.942652    0.000081
      4          6           0        0.695861   -1.654749    0.000234
      5          7           0        1.589809   -0.672107   -0.000014
      6          6           0       -1.326472    1.391160   -0.000199
      7          6           0       -2.616327    0.906614   -0.000145
      8          6           0       -2.896691   -0.471845    0.000072
      9          6           0       -1.874254   -1.394277    0.000150
     10          6           0        1.824590    1.816471    0.000440
     11          6           0        3.029400   -0.802827   -0.000262
     12          1           0       -1.132868    2.452967   -0.000285
     13          1           0       -3.437885    1.608027   -0.000228
     14          1           0       -3.924924   -0.800426    0.000109
     15          1           0       -2.081099   -2.454842    0.000314
     16          1           0        1.137885    2.655214    0.000195
     17          1           0        2.447430    1.885239    0.889317
     18          1           0        2.448485    1.885613   -0.887658
     19          1           0        3.301166   -1.255962   -0.943641
     20          1           0        3.507105    0.170093    0.084450
     21          1           0        3.361041   -1.440049    0.815778
 ---------------------------------------------------------------------
                    Distance matrix (angstroms):
                    1          2          3          4          5
     1  N    0.000000
     2  C    1.350236   0.000000
     3  C    2.224034   1.412890   0.000000
     4  C    2.289305   2.324431   1.435130   0.000000
     5  N    1.391401   2.193325   2.156982   1.328431   0.000000
     6  C    2.496788   1.397156   2.459547   3.656144   3.572361
     7  C    3.672770   2.364992   2.772890   4.187024   4.492654
     8  C    4.086200   2.757971   2.393317   3.782287   4.490967
     9  C    3.539275   2.425071   1.399016   2.583280   3.538540
    10  C    1.438599   2.524524   3.640343   3.650123   2.499629
    11  C    2.435332   3.552956   3.582269   2.484185   1.445514
    12  H    2.853816   2.173149   3.445258   4.496396   4.144763
    13  H    4.592388   3.349099   3.852926   5.266267   5.520572
    14  H    5.164908   3.837069   3.377781   4.699098   5.516226
    15  H    4.375874   3.406971   2.151873   2.889923   4.080896
    16  H    2.049465   2.632898   3.974175   4.332570   3.357871
    17  H    2.095680   3.222946   4.215819   4.048454   2.840148
    18  H    2.095665   3.223474   4.216504   4.048976   2.840276
    19  H    3.075290   4.090654   3.977603   2.799562   2.039623
    20  H    2.502875   3.814503   4.207915   3.352646   2.095820
    21  H    3.198034   4.195755   4.026176   2.795423   2.095832
                    6          7          8          9         10
     6  C    0.000000
     7  C    1.377865   0.000000
     8  C    2.436468   1.406682   0.000000
     9  C    2.838789   2.417596   1.377047   0.000000
    10  C    3.179635   4.533165   5.246607   4.897994   0.000000
    11  C    4.877212   5.898849   5.935327   4.939194   2.883104
    12  H    1.079313   2.142862   3.415494   3.918028   3.025175
    13  H    2.122521   1.080249   2.149130   3.385081   5.266602
    14  H    3.399265   2.150910   1.079458   2.134925   6.317045
    15  H    3.919336   3.403800   2.144171   1.080548   5.787791
    16  H    2.769637   4.141462   5.104537   5.046916   1.083999
    17  H    3.908668   5.233592   5.908150   5.497526   1.087548
    18  H    3.909267   5.234352   5.909025   5.498359   1.087540
    19  H    5.414090   6.370530   6.318138   5.262589   3.537147
    20  H    4.986145   6.168147   6.436444   5.604765   2.355520
    21  H    5.536636   6.473136   6.384513   5.298647   3.691934
                   11         12         13         14         15
    11  C    0.000000
    12  H    5.284380   0.000000
    13  H    6.902028   2.455000   0.000000
    14  H    6.954324   4.287207   2.457204   0.000000
    15  H    5.370880   4.998573   4.283430   2.477253   0.000000
    16  H    3.941558   2.279742   4.694068   6.129721   6.039415
    17  H    2.890629   3.732592   5.958613   6.972115   6.335156
    18  H    2.890094   3.733016   5.959357   6.973039   6.336022
    19  H    1.081273   5.857195   7.382904   7.301682   5.594385
    20  H    1.087176   5.171851   7.092793   7.495604   6.174576
    21  H    1.087179   6.001396   7.495467   7.359329   5.595683
                   16         17         18         19         20
    16  H    0.000000
    17  H    1.760201   0.000000
    18  H    1.760182   1.776975   0.000000
    19  H    4.568141   3.735739   3.255717   0.000000
    20  H    3.434549   2.170817   2.238008   1.770033   0.000000
    21  H    4.730621   3.449295   3.846359   1.770036   1.774467
                   21
    21  H    0.000000
 Stoichiometry    C9H10N2
 Framework group  C1[X(C9H10N2)]
 Deg. of freedom    57
 Full point group                 C1      NOp   1
 Largest Abelian subgroup         C1      NOp   1
 Largest concise Abelian subgroup C1      NOp   1
                         Standard orientation:                         
 ---------------------------------------------------------------------
 Center     Atomic      Atomic             Coordinates (Angstroms)
 Number     Number       Type             X           Y           Z
 ---------------------------------------------------------------------
      1          7           0       -1.044388    0.607288   -0.000375
      2          6           0        0.296299    0.446983   -0.000231
      3          6           0        0.550397   -0.942870   -0.000694
      4          6           0       -0.695432   -1.655265   -0.001301
      5          7           0       -1.589616   -0.672838   -0.001059
      6          6           0        1.326170    1.391128    0.000274
      7          6           0        2.616141    0.906892    0.000428
      8          6           0        2.896836   -0.471500   -0.000017
      9          6           0        1.874621   -1.394177   -0.000540
     10          6           0       -1.824994    1.815684   -0.001036
     11          6           0       -3.029175   -0.803904   -0.001187
     12          1           0        1.132311    2.452889    0.000541
     13          1           0        3.437531    1.608502    0.000861
     14          1           0        3.925148   -0.799834    0.000125
     15          1           0        2.081720   -2.454692   -0.000881
     16          1           0       -1.138490    2.654591   -0.000445
     17          1           0       -2.447635    1.884493   -0.890049
     18          1           0       -2.449120    1.884485    0.886926
     19          1           0       -3.301061   -1.257306    0.942029
     20          1           0       -3.507094    0.168920   -0.085806
     21          1           0       -3.360466   -1.441030   -0.817444
 ---------------------------------------------------------------------
 Rotational constants (GHZ):      2.5245712      0.9331612      0.6871898
 Leave Link  202 at Tue Oct  5 00:45:00 2021, MaxMem=  6710886400 cpu:         0.0
 (Enter /usr/local/gqt/g09/l301.exe)
 Standard basis: 6-311+G(d,p) (5D, 7F)
 Ernie: Thresh=  0.10000D-02 Tol=  0.10000D-05 Strict=F.
 There are   313 symmetry adapted cartesian basis functions of A   symmetry.
 There are   302 symmetry adapted basis functions of A   symmetry.
   302 basis functions,   476 primitive gaussians,   313 cartesian basis functions
    39 alpha electrons       39 beta electrons
       nuclear repulsion energy       586.1220359214 Hartrees.
 IExCor= 5547 DFT=T Ex+Corr=N12SX ExCW=0 ScaHFX=  0.250000
 ScaDFX=  1.000000  1.000000  1.000000  1.000000 ScalE2=  1.000000  1.000000
 IRadAn=      0 IRanWt=     -1 IRanGd=            0 ICorTp=0 IEmpDi=  4
  HFx wShort=  0.110000 wLong=  0.000000 cFull=  0.000000 cShort=  1.000000 cLong=  0.000000
  DFx wShort=  0.110000 wLong=  0.000000 cFull=  0.000000 cShort=  1.000000 cLong=  0.000000
 NAtoms=   21 NActive=   21 NUniq=   21 SFac= 1.00D+00 NAtFMM=   60 NAOKFM=F Big=F
 Integral buffers will be    131072 words long.
 Raffenetti 2 integral format.
 Two-electron integral symmetry is turned on.
 ------------------------------------------------------------------------------
 Polarizable Continuum Model (PCM)
 =================================
 Model                : PCM (using non-symmetric T matrix).
 Atomic radii         : UFF (Universal Force Field).
 Polarization charges : Total charges.
 Charge compensation  : None.
 Solution method      : On-the-fly selection.
 Cavity type          : Scaled VdW (van der Waals Surface) (Alpha=1.100).
 Cavity algorithm     : GePol (No added spheres)
                        Default sphere list used, NSphG=   21.
                        Lebedev-Laikov grids with approx.  5.0 points / Ang**2.
                        Smoothing algorithm: Karplus/York (Gamma=1.0000).
                        Polarization charges: spherical gaussians, with
                                              point-specific exponents (IZeta= 3).
                        Self-potential: point-specific (ISelfS= 7).
                        Self-field    : sphere-specific E.n sum rule (ISelfD= 2).
 1st derivatives      : Analytical E(r).r(x)/FMM algorithm (CHGder, D1EAlg=3).
                        Cavity 1st derivative terms included.
 Solvent              : Water, Eps=  78.355300 Eps(inf)=   1.777849
 ------------------------------------------------------------------------------
 GePol: Number of generator spheres                  =      21
 GePol: Total number of spheres                      =      21
 GePol: Number of exposed spheres                    =      21 (100.00%)
 GePol: Number of points                             =    1660
 GePol: Average weight of points                     =       0.13
 GePol: Minimum weight of points                     =   0.91D-10
 GePol: Maximum weight of points                     =    0.20577
 GePol: Number of points with low weight             =     119
 GePol: Fraction of low-weight points (<1% of avg)   =       7.17%
 GePol: Cavity surface area                          =    214.611 Ang**2
 GePol: Cavity volume                                =    219.739 Ang**3
 Leave Link  301 at Tue Oct  5 00:45:00 2021, MaxMem=  6710886400 cpu:         0.6
 (Enter /usr/local/gqt/g09/l302.exe)
 NPDir=0 NMtPBC=     1 NCelOv=     1 NCel=       1 NClECP=     1 NCelD=      1
         NCelK=      1 NCelE2=     1 NClLst=     1 CellRange=     0.0.
 One-electron integrals computed using PRISM.
 NBasis=   302 RedAO= T EigKep=  1.46D-06  NBF=   302
 NBsUse=   301 1.00D-06 EigRej=  8.87D-07 NBFU=   301
 Precomputing XC quadrature grid using
 IXCGrd= 4 IRadAn=           0 IRanWt=          -1 IRanGd=           0 AccXCQ= 0.00D+00.
 Generated NRdTot=       0 NPtTot=           0 NUsed=           0 NTot=          32
 NSgBfM=   313   313   313   313   313 MxSgAt=    21 MxSgA2=    21.
 Leave Link  302 at Tue Oct  5 00:45:00 2021, MaxMem=  6710886400 cpu:         4.4
 (Enter /usr/local/gqt/g09/l303.exe)
 DipDrv:  MaxL=1.
 Leave Link  303 at Tue Oct  5 00:45:00 2021, MaxMem=  6710886400 cpu:         0.6
 (Enter /usr/local/gqt/g09/l401.exe)
 ExpMin= 4.38D-02 ExpMax= 6.29D+03 ExpMxC= 9.49D+02 IAcc=2 IRadAn=         4 AccDes= 0.00D+00
 Harris functional with IExCor= 5547 and IRadAn=       4 diagonalized for initial guess.
 HarFok:  IExCor= 5547 AccDes= 0.00D+00 IRadAn=         4 IDoV= 1 UseB2=F ITyADJ=14
 ICtDFT=  3500011 ScaDFX=  1.000000  1.000000  1.000000  1.000000
 FoFCou: FMM=F IPFlag=           0 FMFlag=      100000 FMFlg1=           0
         NFxFlg=           0 DoJE=T BraDBF=F KetDBF=T FulRan=T
         wScrn=  0.000000 ICntrl=     500 IOpCl=  0 I1Cent=   200000004 NGrid=           0
         NMat0=    1 NMatS0=      1 NMatT0=    0 NMatD0=    1 NMtDS0=    0 NMtDT0=    0
 Petite list used in FoFCou.
 Harris En= -443.899117547420    
 JPrj=0 DoOrth=F DoCkMO=F.
 Leave Link  401 at Tue Oct  5 00:45:01 2021, MaxMem=  6710886400 cpu:        11.0
 (Enter /usr/local/gqt/g09/l502.exe)
 Closed shell SCF:
 Using DIIS extrapolation, IDIIS=  1040.
 Integral symmetry usage will be decided dynamically.
 Keep R1 ints in memory in canonical form, NReq=2109181970.
 IVT=      319793 IEndB=      319793 NGot=  6710886400 MDV=  4617183846
 LenX=  4617183846 LenY=  4617085436
 Requested convergence on RMS density matrix=1.00D-08 within 128 cycles.
 Requested convergence on MAX density matrix=1.00D-06.
 Requested convergence on             energy=1.00D-06.
 No special actions if energy rises.
 FoFCou: FMM=F IPFlag=           0 FMFlag=           0 FMFlg1=           0
         NFxFlg=           0 DoJE=F BraDBF=F KetDBF=F FulRan=T
         wScrn=  0.000000 ICntrl=     600 IOpCl=  0 I1Cent=           0 NGrid=           0
         NMat0=    1 NMatS0=  45753 NMatT0=    0 NMatD0=    1 NMtDS0=    0 NMtDT0=    0
 Symmetry not used in FoFCou.

 Cycle   1  Pass 1  IDiag  1:
 Inv3:  Mode=1 IEnd=     8266800.
 Iteration    1 A*A^-1 deviation from unit magnitude is 4.22D-15 for   1651.
 Iteration    1 A*A^-1 deviation from orthogonality  is 4.30D-15 for   1655   1015.
 Iteration    1 A^-1*A deviation from unit magnitude is 4.22D-15 for   1651.
 Iteration    1 A^-1*A deviation from orthogonality  is 1.60D-10 for   1261   1258.
 Iteration    2 A*A^-1 deviation from unit magnitude is 2.33D-15 for   1114.
 Iteration    2 A*A^-1 deviation from orthogonality  is 3.48D-15 for    977    800.
 Iteration    2 A^-1*A deviation from unit magnitude is 8.88D-16 for    927.
 Iteration    2 A^-1*A deviation from orthogonality  is 3.45D-16 for   1648   1646.
 E= -457.999796142439    
 DIIS: error= 8.22D-02 at cycle   1 NSaved=   1.
 NSaved= 1 IEnMin= 1 EnMin= -457.999796142439     IErMin= 1 ErrMin= 8.22D-02
 ErrMax= 8.22D-02  0.00D+00 EMaxC= 1.00D-01 BMatC= 1.29D+00 BMatP= 1.29D+00
 IDIUse=3 WtCom= 1.78D-01 WtEn= 8.22D-01
 Coeff-Com:  0.100D+01
 Coeff-En:   0.100D+01
 Coeff:      0.100D+01
 Gap=     0.231 Goal=   None    Shift=    0.000
 GapD=    0.231 DampG=1.000 DampE=0.500 DampFc=0.5000 IDamp=-1.
 Damping current iteration by 5.00D-01
 RMSDP=2.99D-02 MaxDP=3.13D+00              OVMax= 3.86D-01

 Cycle   2  Pass 1  IDiag  1:
 E= -457.984460661119     Delta-E=        0.015335481319 Rises=F Damp=T
 DIIS: error= 3.36D-02 at cycle   2 NSaved=   2.
 NSaved= 2 IEnMin= 1 EnMin= -457.999796142439     IErMin= 2 ErrMin= 3.36D-02
 ErrMax= 3.36D-02  0.00D+00 EMaxC= 1.00D-01 BMatC= 3.29D-01 BMatP= 1.29D+00
 IDIUse=3 WtCom= 6.64D-01 WtEn= 3.36D-01
 Coeff-Com: -0.180D-01 0.102D+01
 Coeff-En:   0.519D+00 0.481D+00
 Coeff:      0.163D+00 0.837D+00
 Gap=     0.328 Goal=   None    Shift=    0.000
 RMSDP=1.79D-02 MaxDP=2.12D+00 DE= 1.53D-02 OVMax= 5.24D-01

 Cycle   3  Pass 1  IDiag  1:
 E= -458.114331309975     Delta-E=       -0.129870648856 Rises=F Damp=F
 DIIS: error= 3.43D-02 at cycle   3 NSaved=   3.
 NSaved= 3 IEnMin= 3 EnMin= -458.114331309975     IErMin= 2 ErrMin= 3.36D-02
 ErrMax= 3.43D-02  0.00D+00 EMaxC= 1.00D-01 BMatC= 1.95D-01 BMatP= 3.29D-01
 IDIUse=3 WtCom= 6.57D-01 WtEn= 3.43D-01
 Coeff-Com: -0.234D+00 0.565D+00 0.669D+00
 Coeff-En:   0.000D+00 0.327D+00 0.673D+00
 Coeff:     -0.154D+00 0.484D+00 0.670D+00
 Gap=     0.173 Goal=   None    Shift=    0.000
 RMSDP=4.60D-03 MaxDP=2.13D-01 DE=-1.30D-01 OVMax= 2.39D-01

 Cycle   4  Pass 1  IDiag  1:
 E= -458.269010217382     Delta-E=       -0.154678907407 Rises=F Damp=F
 DIIS: error= 1.28D-02 at cycle   4 NSaved=   4.
 NSaved= 4 IEnMin= 4 EnMin= -458.269010217382     IErMin= 4 ErrMin= 1.28D-02
 ErrMax= 1.28D-02  0.00D+00 EMaxC= 1.00D-01 BMatC= 3.24D-02 BMatP= 1.95D-01
 IDIUse=3 WtCom= 8.72D-01 WtEn= 1.28D-01
 Coeff-Com: -0.552D-01 0.144D+00 0.368D+00 0.544D+00
 Coeff-En:   0.000D+00 0.000D+00 0.192D+00 0.808D+00
 Coeff:     -0.482D-01 0.125D+00 0.345D+00 0.578D+00
 Gap=     0.168 Goal=   None    Shift=    0.000
 RMSDP=2.06D-03 MaxDP=1.18D-01 DE=-1.55D-01 OVMax= 9.40D-02

 Cycle   5  Pass 1  IDiag  1:
 E= -458.298408478190     Delta-E=       -0.029398260808 Rises=F Damp=F
 DIIS: error= 3.14D-03 at cycle   5 NSaved=   5.
 NSaved= 5 IEnMin= 5 EnMin= -458.298408478190     IErMin= 5 ErrMin= 3.14D-03
 ErrMax= 3.14D-03  0.00D+00 EMaxC= 1.00D-01 BMatC= 2.02D-03 BMatP= 3.24D-02
 IDIUse=3 WtCom= 9.69D-01 WtEn= 3.14D-02
 Coeff-Com:  0.257D-01-0.515D-01 0.452D-01 0.340D+00 0.640D+00
 Coeff-En:   0.000D+00 0.000D+00 0.000D+00 0.951D-02 0.990D+00
 Coeff:      0.249D-01-0.499D-01 0.438D-01 0.330D+00 0.651D+00
 Gap=     0.165 Goal=   None    Shift=    0.000
 RMSDP=1.18D-03 MaxDP=1.51D-01 DE=-2.94D-02 OVMax= 2.76D-02

 Cycle   6  Pass 1  IDiag  1:
 E= -458.300329979590     Delta-E=       -0.001921501401 Rises=F Damp=F
 DIIS: error= 9.36D-04 at cycle   6 NSaved=   6.
 NSaved= 6 IEnMin= 6 EnMin= -458.300329979590     IErMin= 6 ErrMin= 9.36D-04
 ErrMax= 9.36D-04  0.00D+00 EMaxC= 1.00D-01 BMatC= 2.12D-04 BMatP= 2.02D-03
 IDIUse=3 WtCom= 9.91D-01 WtEn= 9.36D-03
 Coeff-Com:  0.153D-01-0.324D-01 0.573D-02 0.139D+00 0.373D+00 0.499D+00
 Coeff-En:   0.000D+00 0.000D+00 0.000D+00 0.000D+00 0.598D-01 0.940D+00
 Coeff:      0.152D-01-0.321D-01 0.568D-02 0.138D+00 0.371D+00 0.503D+00
 Gap=     0.163 Goal=   None    Shift=    0.000
 RMSDP=1.23D-04 MaxDP=1.31D-02 DE=-1.92D-03 OVMax= 6.53D-03

 Cycle   7  Pass 1  IDiag  1:
 E= -458.300539520269     Delta-E=       -0.000209540679 Rises=F Damp=F
 DIIS: error= 1.49D-04 at cycle   7 NSaved=   7.
 NSaved= 7 IEnMin= 7 EnMin= -458.300539520269     IErMin= 7 ErrMin= 1.49D-04
 ErrMax= 1.49D-04  0.00D+00 EMaxC= 1.00D-01 BMatC= 9.88D-06 BMatP= 2.12D-04
 IDIUse=3 WtCom= 9.99D-01 WtEn= 1.49D-03
 Coeff-Com:  0.309D-02-0.642D-02 0.111D-02 0.200D-01 0.907D-01 0.210D+00
 Coeff-Com:  0.682D+00
 Coeff-En:   0.000D+00 0.000D+00 0.000D+00 0.000D+00 0.000D+00 0.000D+00
 Coeff-En:   0.100D+01
 Coeff:      0.309D-02-0.641D-02 0.111D-02 0.200D-01 0.906D-01 0.209D+00
 Coeff:      0.682D+00
 Gap=     0.164 Goal=   None    Shift=    0.000
 RMSDP=6.16D-05 MaxDP=6.58D-03 DE=-2.10D-04 OVMax= 8.28D-04

 Cycle   8  Pass 1  IDiag  1:
 E= -458.300547522331     Delta-E=       -0.000008002061 Rises=F Damp=F
 DIIS: error= 5.92D-05 at cycle   8 NSaved=   8.
 NSaved= 8 IEnMin= 8 EnMin= -458.300547522331     IErMin= 8 ErrMin= 5.92D-05
 ErrMax= 5.92D-05  0.00D+00 EMaxC= 1.00D-01 BMatC= 1.28D-06 BMatP= 9.88D-06
 IDIUse=1 WtCom= 1.00D+00 WtEn= 0.00D+00
 Coeff-Com:  0.529D-03-0.944D-03 0.637D-03-0.232D-03 0.189D-01 0.694D-01
 Coeff-Com:  0.343D+00 0.569D+00
 Coeff:      0.529D-03-0.944D-03 0.637D-03-0.232D-03 0.189D-01 0.694D-01
 Coeff:      0.343D+00 0.569D+00
 Gap=     0.164 Goal=   None    Shift=    0.000
 RMSDP=2.23D-05 MaxDP=2.67D-03 DE=-8.00D-06 OVMax= 3.37D-04

 Cycle   9  Pass 1  IDiag  1:
 E= -458.300548770176     Delta-E=       -0.000001247845 Rises=F Damp=F
 DIIS: error= 2.18D-05 at cycle   9 NSaved=   9.
 NSaved= 9 IEnMin= 9 EnMin= -458.300548770176     IErMin= 9 ErrMin= 2.18D-05
 ErrMax= 2.18D-05  0.00D+00 EMaxC= 1.00D-01 BMatC= 9.52D-08 BMatP= 1.28D-06
 IDIUse=1 WtCom= 1.00D+00 WtEn= 0.00D+00
 Coeff-Com: -0.320D-04 0.132D-03 0.264D-03-0.221D-02-0.755D-03 0.990D-02
 Coeff-Com:  0.771D-01 0.248D+00 0.667D+00
 Coeff:     -0.320D-04 0.132D-03 0.264D-03-0.221D-02-0.755D-03 0.990D-02
 Coeff:      0.771D-01 0.248D+00 0.667D+00
 Gap=     0.164 Goal=   None    Shift=    0.000
 RMSDP=5.08D-06 MaxDP=2.83D-04 DE=-1.25D-06 OVMax= 1.08D-04

 Cycle  10  Pass 1  IDiag  1:
 E= -458.300548852210     Delta-E=       -0.000000082034 Rises=F Damp=F
 DIIS: error= 9.32D-06 at cycle  10 NSaved=  10.
 NSaved=10 IEnMin=10 EnMin= -458.300548852210     IErMin=10 ErrMin= 9.32D-06
 ErrMax= 9.32D-06  0.00D+00 EMaxC= 1.00D-01 BMatC= 9.19D-09 BMatP= 9.52D-08
 IDIUse=1 WtCom= 1.00D+00 WtEn= 0.00D+00
 Coeff-Com: -0.459D-04 0.113D-03 0.105D-03-0.120D-02-0.178D-02 0.543D-03
 Coeff-Com:  0.164D-01 0.908D-01 0.346D+00 0.549D+00
 Coeff:     -0.459D-04 0.113D-03 0.105D-03-0.120D-02-0.178D-02 0.543D-03
 Coeff:      0.164D-01 0.908D-01 0.346D+00 0.549D+00
 Gap=     0.164 Goal=   None    Shift=    0.000
 RMSDP=1.38D-06 MaxDP=1.28D-04 DE=-8.20D-08 OVMax= 3.64D-05

 Cycle  11  Pass 1  IDiag  1:
 E= -458.300548860827     Delta-E=       -0.000000008617 Rises=F Damp=F
 DIIS: error= 2.81D-06 at cycle  11 NSaved=  11.
 NSaved=11 IEnMin=11 EnMin= -458.300548860827     IErMin=11 ErrMin= 2.81D-06
 ErrMax= 2.81D-06  0.00D+00 EMaxC= 1.00D-01 BMatC= 8.47D-10 BMatP= 9.19D-09
 IDIUse=1 WtCom= 1.00D+00 WtEn= 0.00D+00
 Coeff-Com: -0.210D-04 0.429D-04 0.196D-04-0.323D-03-0.872D-03-0.118D-02
 Coeff-Com: -0.352D-02 0.828D-02 0.770D-01 0.263D+00 0.658D+00
 Coeff:     -0.210D-04 0.429D-04 0.196D-04-0.323D-03-0.872D-03-0.118D-02
 Coeff:     -0.352D-02 0.828D-02 0.770D-01 0.263D+00 0.658D+00
 Gap=     0.164 Goal=   None    Shift=    0.000
 RMSDP=5.06D-07 MaxDP=6.26D-05 DE=-8.62D-09 OVMax= 1.50D-05

 Cycle  12  Pass 1  IDiag  1:
 E= -458.300548861609     Delta-E=       -0.000000000783 Rises=F Damp=F
 DIIS: error= 6.36D-07 at cycle  12 NSaved=  12.
 NSaved=12 IEnMin=12 EnMin= -458.300548861609     IErMin=12 ErrMin= 6.36D-07
 ErrMax= 6.36D-07  0.00D+00 EMaxC= 1.00D-01 BMatC= 1.06D-10 BMatP= 8.47D-10
 IDIUse=1 WtCom= 1.00D+00 WtEn= 0.00D+00
 Coeff-Com: -0.624D-05 0.118D-04 0.111D-05-0.602D-04-0.245D-03-0.516D-03
 Coeff-Com: -0.276D-02-0.308D-02 0.785D-02 0.700D-01 0.337D+00 0.591D+00
 Coeff:     -0.624D-05 0.118D-04 0.111D-05-0.602D-04-0.245D-03-0.516D-03
 Coeff:     -0.276D-02-0.308D-02 0.785D-02 0.700D-01 0.337D+00 0.591D+00
 Gap=     0.164 Goal=   None    Shift=    0.000
 RMSDP=2.09D-07 MaxDP=2.46D-05 DE=-7.83D-10 OVMax= 3.65D-06

 Cycle  13  Pass 1  IDiag  1:
 E= -458.300548861712     Delta-E=       -0.000000000103 Rises=F Damp=F
 DIIS: error= 1.50D-07 at cycle  13 NSaved=  13.
 NSaved=13 IEnMin=13 EnMin= -458.300548861712     IErMin=13 ErrMin= 1.50D-07
 ErrMax= 1.50D-07  0.00D+00 EMaxC= 1.00D-01 BMatC= 6.15D-12 BMatP= 1.06D-10
 IDIUse=1 WtCom= 1.00D+00 WtEn= 0.00D+00
 Coeff-Com: -0.840D-06 0.952D-06-0.392D-05 0.868D-05-0.771D-05-0.104D-03
 Coeff-Com: -0.908D-03-0.254D-02-0.682D-02-0.658D-02 0.668D-01 0.235D+00
 Coeff-Com:  0.715D+00
 Coeff:     -0.840D-06 0.952D-06-0.392D-05 0.868D-05-0.771D-05-0.104D-03
 Coeff:     -0.908D-03-0.254D-02-0.682D-02-0.658D-02 0.668D-01 0.235D+00
 Coeff:      0.715D+00
 Gap=     0.164 Goal=   None    Shift=    0.000
 RMSDP=5.39D-08 MaxDP=5.91D-06 DE=-1.03D-10 OVMax= 5.51D-07

 Cycle  14  Pass 1  IDiag  1:
 E= -458.300548861706     Delta-E=        0.000000000006 Rises=F Damp=F
 DIIS: error= 4.72D-08 at cycle  14 NSaved=  14.
 NSaved=14 IEnMin=13 EnMin= -458.300548861712     IErMin=14 ErrMin= 4.72D-08
 ErrMax= 4.72D-08  0.00D+00 EMaxC= 1.00D-01 BMatC= 6.16D-13 BMatP= 6.15D-12
 IDIUse=1 WtCom= 1.00D+00 WtEn= 0.00D+00
 Coeff-Com: -0.242D-06 0.251D-06-0.138D-05 0.414D-05 0.879D-05-0.643D-05
 Coeff-Com: -0.164D-03-0.647D-03-0.259D-02-0.646D-02 0.128D-01 0.734D-01
 Coeff-Com:  0.326D+00 0.597D+00
 Coeff:     -0.242D-06 0.251D-06-0.138D-05 0.414D-05 0.879D-05-0.643D-05
 Coeff:     -0.164D-03-0.647D-03-0.259D-02-0.646D-02 0.128D-01 0.734D-01
 Coeff:      0.326D+00 0.597D+00
 Gap=     0.164 Goal=   None    Shift=    0.000
 RMSDP=1.31D-08 MaxDP=1.52D-06 DE= 6.37D-12 OVMax= 2.92D-07

 Cycle  15  Pass 1  IDiag  1:
 E= -458.300548861699     Delta-E=        0.000000000007 Rises=F Damp=F
 DIIS: error= 1.55D-08 at cycle  15 NSaved=  15.
 NSaved=15 IEnMin=13 EnMin= -458.300548861712     IErMin=15 ErrMin= 1.55D-08
 ErrMax= 1.55D-08  0.00D+00 EMaxC= 1.00D-01 BMatC= 6.28D-14 BMatP= 6.16D-13
 IDIUse=1 WtCom= 1.00D+00 WtEn= 0.00D+00
 Coeff-Com:  0.500D-07-0.139D-06-0.393D-06 0.171D-05 0.528D-05 0.640D-05
 Coeff-Com:  0.331D-05-0.754D-04-0.534D-03-0.257D-02-0.138D-02 0.626D-02
 Coeff-Com:  0.626D-01 0.276D+00 0.659D+00
 Coeff:      0.500D-07-0.139D-06-0.393D-06 0.171D-05 0.528D-05 0.640D-05
 Coeff:      0.331D-05-0.754D-04-0.534D-03-0.257D-02-0.138D-02 0.626D-02
 Coeff:      0.626D-01 0.276D+00 0.659D+00
 Gap=     0.164 Goal=   None    Shift=    0.000
 RMSDP=3.60D-09 MaxDP=2.21D-07 DE= 6.82D-12 OVMax= 8.04D-08

 Error on total polarization charges =  0.01783
 SCF Done:  E(RN12SX) =  -458.300548862     A.U. after   15 cycles
            NFock= 15  Conv=0.36D-08     -V/T= 2.0059
 KE= 4.556030031847D+02 PE=-2.236401794127D+03 EE= 7.363762061596D+02
 Leave Link  502 at Tue Oct  5 00:45:47 2021, MaxMem=  6710886400 cpu:       569.8
 (Enter /usr/local/gqt/g09/l601.exe)
 Copying SCF densities to generalized density rwf, IOpCl= 0 IROHF=0.

 **********************************************************************

            Population analysis using the SCF density.

 **********************************************************************

 Orbital symmetries:
       Occupied  (A) (A) (A) (A) (A) (A) (A) (A) (A) (A) (A) (A)
                 (A) (A) (A) (A) (A) (A) (A) (A) (A) (A) (A) (A)
                 (A) (A) (A) (A) (A) (A) (A) (A) (A) (A) (A) (A)
                 (A) (A) (A)
       Virtual   (A) (A) (A) (A) (A) (A) (A) (A) (A) (A) (A) (A)
                 (A) (A) (A) (A) (A) (A) (A) (A) (A) (A) (A) (A)
                 (A) (A) (A) (A) (A) (A) (A) (A) (A) (A) (A) (A)
                 (A) (A) (A) (A) (A) (A) (A) (A) (A) (A) (A) (A)
                 (A) (A) (A) (A) (A) (A) (A) (A) (A) (A) (A) (A)
                 (A) (A) (A) (A) (A) (A) (A) (A) (A) (A) (A) (A)
                 (A) (A) (A) (A) (A) (A) (A) (A) (A) (A) (A) (A)
                 (A) (A) (A) (A) (A) (A) (A) (A) (A) (A) (A) (A)
                 (A) (A) (A) (A) (A) (A) (A) (A) (A) (A) (A) (A)
                 (A) (A) (A) (A) (A) (A) (A) (A) (A) (A) (A) (A)
                 (A) (A) (A) (A) (A) (A) (A) (A) (A) (A) (A) (A)
                 (A) (A) (A) (A) (A) (A) (A) (A) (A) (A) (A) (A)
                 (A) (A) (A) (A) (A) (A) (A) (A) (A) (A) (A) (A)
                 (A) (A) (A) (A) (A) (A) (A) (A) (A) (A) (A) (A)
                 (A) (A) (A) (A) (A) (A) (A) (A) (A) (A) (A) (A)
                 (A) (A) (A) (A) (A) (A) (A) (A) (A) (A) (A) (A)
                 (A) (A) (A) (A) (A) (A) (A) (A) (A) (A) (A) (A)
                 (A) (A) (A) (A) (A) (A) (A) (A) (A) (A) (A) (A)
                 (A) (A) (A) (A) (A) (A) (A) (A) (A) (A) (A) (A)
                 (A) (A) (A) (A) (A) (A) (A) (A) (A) (A) (A) (A)
                 (A) (A) (A) (A) (A) (A) (A) (A) (A) (A) (A) (A)
                 (A) (A) (A) (A) (A) (A) (A) (A) (A) (A)
 The electronic state is 1-A.
 Alpha  occ. eigenvalues --  -14.45550 -14.44419 -10.27184 -10.26677 -10.25790
 Alpha  occ. eigenvalues --  -10.23394 -10.23298 -10.23116 -10.22215 -10.22188
 Alpha  occ. eigenvalues --  -10.21924  -1.07296  -0.89293  -0.86401  -0.80386
 Alpha  occ. eigenvalues --   -0.75968  -0.71862  -0.70393  -0.63163  -0.61413
 Alpha  occ. eigenvalues --   -0.57413  -0.53199  -0.50634  -0.50487  -0.48866
 Alpha  occ. eigenvalues --   -0.44857  -0.44237  -0.44184  -0.42113  -0.41959
 Alpha  occ. eigenvalues --   -0.40246  -0.40125  -0.36349  -0.35203  -0.34729
 Alpha  occ. eigenvalues --   -0.29078  -0.24970  -0.21741  -0.21701
 Alpha virt. eigenvalues --   -0.05320  -0.00603  -0.00553   0.00477   0.01041
 Alpha virt. eigenvalues --    0.01437   0.02545   0.02602   0.03437   0.03633
 Alpha virt. eigenvalues --    0.05087   0.05102   0.05372   0.05969   0.06287
 Alpha virt. eigenvalues --    0.08221   0.08603   0.08653   0.09224   0.09798
 Alpha virt. eigenvalues --    0.10338   0.11750   0.12166   0.12793   0.13380
 Alpha virt. eigenvalues --    0.13578   0.13864   0.14599   0.15561   0.15836
 Alpha virt. eigenvalues --    0.15887   0.16909   0.17299   0.17784   0.18535
 Alpha virt. eigenvalues --    0.18743   0.19179   0.19492   0.19819   0.20229
 Alpha virt. eigenvalues --    0.20441   0.21179   0.22004   0.22609   0.23119
 Alpha virt. eigenvalues --    0.23200   0.23409   0.24174   0.25229   0.25529
 Alpha virt. eigenvalues --    0.26229   0.26466   0.26954   0.27663   0.27826
 Alpha virt. eigenvalues --    0.29873   0.30308   0.31251   0.32560   0.33897
 Alpha virt. eigenvalues --    0.34678   0.36190   0.37673   0.39399   0.40892
 Alpha virt. eigenvalues --    0.43118   0.43486   0.44405   0.46377   0.47964
 Alpha virt. eigenvalues --    0.49005   0.50888   0.53026   0.53527   0.53808
 Alpha virt. eigenvalues --    0.54255   0.54638   0.56414   0.56928   0.57913
 Alpha virt. eigenvalues --    0.58481   0.59600   0.61341   0.61680   0.63067
 Alpha virt. eigenvalues --    0.64858   0.65103   0.65594   0.66288   0.67274
 Alpha virt. eigenvalues --    0.69108   0.70959   0.70981   0.71669   0.73157
 Alpha virt. eigenvalues --    0.73664   0.74373   0.76272   0.77883   0.81665
 Alpha virt. eigenvalues --    0.81752   0.82578   0.83311   0.84285   0.85276
 Alpha virt. eigenvalues --    0.86582   0.87231   0.89981   0.91242   0.93209
 Alpha virt. eigenvalues --    0.94575   0.94811   0.96694   0.99586   1.00539
 Alpha virt. eigenvalues --    1.02450   1.04738   1.06847   1.07436   1.07751
 Alpha virt. eigenvalues --    1.08923   1.10817   1.12648   1.15173   1.16432
 Alpha virt. eigenvalues --    1.19110   1.24971   1.25714   1.31461   1.35184
 Alpha virt. eigenvalues --    1.39530   1.42144   1.42599   1.42732   1.44111
 Alpha virt. eigenvalues --    1.45792   1.49183   1.50126   1.50907   1.52694
 Alpha virt. eigenvalues --    1.53941   1.55438   1.56573   1.57559   1.57894
 Alpha virt. eigenvalues --    1.58738   1.60176   1.61562   1.64998   1.66029
 Alpha virt. eigenvalues --    1.67923   1.68883   1.72876   1.73422   1.74236
 Alpha virt. eigenvalues --    1.74771   1.76368   1.77041   1.82172   1.83307
 Alpha virt. eigenvalues --    1.85067   1.86450   1.89718   1.91515   1.92407
 Alpha virt. eigenvalues --    1.93349   1.94664   1.95472   1.96175   1.98344
 Alpha virt. eigenvalues --    2.00730   2.04148   2.05172   2.06987   2.08113
 Alpha virt. eigenvalues --    2.11171   2.11893   2.13952   2.14369   2.22536
 Alpha virt. eigenvalues --    2.26180   2.27275   2.28694   2.30818   2.34025
 Alpha virt. eigenvalues --    2.40221   2.41395   2.41713   2.44946   2.47274
 Alpha virt. eigenvalues --    2.48092   2.48972   2.52444   2.54952   2.55387
 Alpha virt. eigenvalues --    2.55971   2.57499   2.59557   2.64534   2.65246
 Alpha virt. eigenvalues --    2.66850   2.67204   2.69041   2.70402   2.72143
 Alpha virt. eigenvalues --    2.73951   2.75031   2.76709   2.77020   2.78741
 Alpha virt. eigenvalues --    2.79151   2.82791   2.82844   2.84845   2.89195
 Alpha virt. eigenvalues --    2.90994   2.91670   2.95907   2.99989   3.02655
 Alpha virt. eigenvalues --    3.03785   3.07626   3.15127   3.18577   3.21338
 Alpha virt. eigenvalues --    3.32274   3.33264   3.40048   3.46950   3.47480
 Alpha virt. eigenvalues --    3.53770   3.58295   3.61850   3.68658   3.69336
 Alpha virt. eigenvalues --    3.76634   3.78785   3.83285   3.84771   3.87998
 Alpha virt. eigenvalues --    3.94598   3.97117   4.02874   4.08592   4.12333
 Alpha virt. eigenvalues --    4.19564   4.34830   4.83614   4.88256   5.06981
 Alpha virt. eigenvalues --    5.36501  23.50073  23.79477  23.82722  23.84239
 Alpha virt. eigenvalues --   23.86774  23.92580  23.95789  24.01932  24.10023
 Alpha virt. eigenvalues --   35.28750  35.37316
          Condensed to atoms (all electrons):
               1          2          3          4          5          6
     1  N    7.912467  -1.405870   1.121548   0.678292  -0.798997  -0.257867
     2  C   -1.405870  17.667316  -6.772588  -4.641784   1.436541  -1.237813
     3  C    1.121548  -6.772588  17.885046   0.950141  -1.234145  -1.365336
     4  C    0.678292  -4.641784   0.950141  11.705137  -0.789414  -0.683148
     5  N   -0.798997   1.436541  -1.234145  -0.789414   7.789272   0.102119
     6  C   -0.257867  -1.237813  -1.365336  -0.683148   0.102119   7.985189
     7  C   -0.107832   0.387467  -1.184527   0.008212   0.073591   0.417834
     8  C    0.139321  -1.012605   1.091279   0.142959  -0.099856  -0.184351
     9  C   -0.292937   2.555104  -5.079142  -1.108946   0.216997   1.108476
    10  C    0.019875   0.030505  -0.610838  -0.047682   0.210028   0.133325
    11  C    0.025795  -0.179390   0.195432  -0.160685   0.145241  -0.002965
    12  H   -0.011149  -0.010669  -0.042782   0.002458  -0.001934   0.410426
    13  H   -0.002100   0.071403   0.004243   0.001887   0.000473  -0.103378
    14  H   -0.000046   0.010893   0.029553   0.012136   0.000739  -0.020147
    15  H   -0.002931   0.033141  -0.107283   0.013207   0.001757  -0.003660
    16  H   -0.005287  -0.022850   0.001095   0.005839  -0.029942   0.006775
    17  H   -0.051034  -0.024310   0.012755   0.002100   0.011082  -0.001974
    18  H   -0.053683  -0.028290   0.018497  -0.000025   0.011814  -0.000956
    19  H   -0.012214  -0.008775  -0.002919   0.004409  -0.030003  -0.003077
    20  H    0.036846   0.011861   0.015494  -0.025460  -0.082983   0.002637
    21  H   -0.006778  -0.000170  -0.004689  -0.000352  -0.035554  -0.001241
               7          8          9         10         11         12
     1  N   -0.107832   0.139321  -0.292937   0.019875   0.025795  -0.011149
     2  C    0.387467  -1.012605   2.555104   0.030505  -0.179390  -0.010669
     3  C   -1.184527   1.091279  -5.079142  -0.610838   0.195432  -0.042782
     4  C    0.008212   0.142959  -1.108946  -0.047682  -0.160685   0.002458
     5  N    0.073591  -0.099856   0.216997   0.210028   0.145241  -0.001934
     6  C    0.417834  -0.184351   1.108476   0.133325  -0.002965   0.410426
     7  C    5.744313   0.274165   0.106217   0.049211  -0.009783   0.019804
     8  C    0.274165   5.699077  -0.208139  -0.021988   0.007546  -0.011768
     9  C    0.106217  -0.208139   8.968022   0.096619  -0.023186   0.001331
    10  C    0.049211  -0.021988   0.096619   5.420896  -0.093551   0.002928
    11  C   -0.009783   0.007546  -0.023186  -0.093551   5.185428  -0.000423
    12  H    0.019804  -0.011768   0.001331   0.002928  -0.000423   0.497194
    13  H    0.445902  -0.039141  -0.022315   0.000555  -0.000003  -0.006243
    14  H   -0.011976   0.422350  -0.084604   0.000069   0.000005  -0.000104
    15  H    0.002083  -0.036292   0.455041   0.000418   0.000229   0.000034
    16  H    0.026473   0.002901  -0.007024   0.381041   0.003358   0.004049
    17  H   -0.003439   0.000199   0.000744   0.430820  -0.007602  -0.000091
    18  H   -0.003404   0.000163   0.000704   0.427926  -0.002941  -0.000108
    19  H   -0.000144   0.000026  -0.002405  -0.003613   0.424233  -0.000002
    20  H   -0.000104   0.000055  -0.000260   0.003173   0.412979   0.000005
    21  H   -0.000034   0.000175  -0.001045   0.001188   0.413256  -0.000001
              13         14         15         16         17         18
     1  N   -0.002100  -0.000046  -0.002931  -0.005287  -0.051034  -0.053683
     2  C    0.071403   0.010893   0.033141  -0.022850  -0.024310  -0.028290
     3  C    0.004243   0.029553  -0.107283   0.001095   0.012755   0.018497
     4  C    0.001887   0.012136   0.013207   0.005839   0.002100  -0.000025
     5  N    0.000473   0.000739   0.001757  -0.029942   0.011082   0.011814
     6  C   -0.103378  -0.020147  -0.003660   0.006775  -0.001974  -0.000956
     7  C    0.445902  -0.011976   0.002083   0.026473  -0.003439  -0.003404
     8  C   -0.039141   0.422350  -0.036292   0.002901   0.000199   0.000163
     9  C   -0.022315  -0.084604   0.455041  -0.007024   0.000744   0.000704
    10  C    0.000555   0.000069   0.000418   0.381041   0.430820   0.427926
    11  C   -0.000003   0.000005   0.000229   0.003358  -0.007602  -0.002941
    12  H   -0.006243  -0.000104   0.000034   0.004049  -0.000091  -0.000108
    13  H    0.492930  -0.006703  -0.000117   0.000004  -0.000001  -0.000001
    14  H   -0.006703   0.498578  -0.007151  -0.000001   0.000000   0.000000
    15  H   -0.000117  -0.007151   0.496776   0.000001  -0.000001  -0.000001
    16  H    0.000004  -0.000001   0.000001   0.476912  -0.016338  -0.016195
    17  H   -0.000001   0.000000  -0.000001  -0.016338   0.480763  -0.042790
    18  H   -0.000001   0.000000  -0.000001  -0.016195  -0.042790   0.481855
    19  H    0.000000   0.000000  -0.000002  -0.000103   0.000567  -0.000703
    20  H    0.000000   0.000000   0.000000   0.001913  -0.000879  -0.002081
    21  H    0.000000   0.000000  -0.000003  -0.000082  -0.000514   0.000276
              19         20         21
     1  N   -0.012214   0.036846  -0.006778
     2  C   -0.008775   0.011861  -0.000170
     3  C   -0.002919   0.015494  -0.004689
     4  C    0.004409  -0.025460  -0.000352
     5  N   -0.030003  -0.082983  -0.035554
     6  C   -0.003077   0.002637  -0.001241
     7  C   -0.000144  -0.000104  -0.000034
     8  C    0.000026   0.000055   0.000175
     9  C   -0.002405  -0.000260  -0.001045
    10  C   -0.003613   0.003173   0.001188
    11  C    0.424233   0.412979   0.413256
    12  H   -0.000002   0.000005  -0.000001
    13  H    0.000000   0.000000   0.000000
    14  H    0.000000   0.000000   0.000000
    15  H   -0.000002   0.000000  -0.000003
    16  H   -0.000103   0.001913  -0.000082
    17  H    0.000567  -0.000879  -0.000514
    18  H   -0.000703  -0.002081   0.000276
    19  H    0.479285  -0.022724  -0.025656
    20  H   -0.022724   0.486090  -0.022392
    21  H   -0.025656  -0.022392   0.485839
 Mulliken charges:
               1
     1  N    0.074580
     2  C   -0.859117
     3  C    1.079163
     4  C   -0.069281
     5  N    0.103175
     6  C   -0.300868
     7  C   -0.234031
     8  C   -0.166076
     9  C   -0.679252
    10  C   -0.430905
    11  C   -0.332972
    12  H    0.147045
    13  H    0.162607
    14  H    0.156411
    15  H    0.154752
    16  H    0.187459
    17  H    0.209944
    18  H    0.209944
    19  H    0.203819
    20  H    0.185828
    21  H    0.197776
 Sum of Mulliken charges =   0.00000
 Mulliken charges with hydrogens summed into heavy atoms:
               1
     1  N    0.074580
     2  C   -0.859117
     3  C    1.079163
     4  C   -0.069281
     5  N    0.103175
     6  C   -0.153822
     7  C   -0.071425
     8  C   -0.009665
     9  C   -0.524500
    10  C    0.176442
    11  C    0.254451
 Electronic spatial extent (au):  <R**2>=           1663.2779
 Charge=              0.0000 electrons
 Dipole moment (field-independent basis, Debye):
    X=             -3.2131    Y=              6.7024    Z=              0.0041  Tot=              7.4327
 Quadrupole moment (field-independent basis, Debye-Ang):
   XX=            -47.2708   YY=            -68.2627   ZZ=            -68.5293
   XY=             -5.5098   XZ=              0.0845   YZ=              0.0101
 Traceless Quadrupole moment (field-independent basis, Debye-Ang):
   XX=             14.0835   YY=             -6.9084   ZZ=             -7.1750
   XY=             -5.5098   XZ=              0.0845   YZ=              0.0101
 Octapole moment (field-independent basis, Debye-Ang**2):
  XXX=            -34.5644  YYY=             56.8587  ZZZ=              0.2869  XYY=              5.6705
  XXY=              7.8342  XXZ=             -0.5402  XZZ=            -14.1862  YZZ=              4.4840
  YYZ=             -0.2283  XYZ=             -0.1351
 Hexadecapole moment (field-independent basis, Debye-Ang**3):
 XXXX=          -1337.0261 YYYY=           -693.8343 ZZZZ=            -90.9407 XXXY=              2.2761
 XXXZ=              2.7866 YYYX=            -50.3280 YYYZ=              0.6250 ZZZX=             -0.8121
 ZZZY=             -0.2976 XXYY=           -331.1821 XXZZ=           -285.8375 YYZZ=           -132.8683
 XXYZ=              0.7874 YYXZ=              1.0230 ZZXY=             -2.6119
 N-N= 5.861220359214D+02 E-N=-2.236401794218D+03  KE= 4.556030031847D+02
 No NMR shielding tensors so no spin-rotation constants.
 Leave Link  601 at Tue Oct  5 00:45:48 2021, MaxMem=  6710886400 cpu:         2.2
 (Enter /usr/local/gqt/g09/l701.exe)
 Compute integral first derivatives.
 ... and contract with generalized density number  0.
 D1PCM: PCM CHGder 1st derivatives, ID1Alg=3 FixD1E=F DoIter=F DoCFld=F I1PDM=0.
 GePol: Maximum number of non-zero 1st derivatives   =     211
 Leave Link  701 at Tue Oct  5 00:45:49 2021, MaxMem=  6710886400 cpu:        15.7
 (Enter /usr/local/gqt/g09/l702.exe)
 L702 exits ... SP integral derivatives will be done elsewhere.
 Leave Link  702 at Tue Oct  5 00:45:49 2021, MaxMem=  6710886400 cpu:         0.4
 (Enter /usr/local/gqt/g09/l703.exe)
 Compute integral first derivatives, UseDBF=F ICtDFT=           0.
 Integral derivatives from FoFJK, PRISM(SPDF).
 Calling FoFJK, ICntrl=      2127 FMM=F ISym2X=0 I1Cent= 0 IOpClX= 0 NMat=1 NMatS=1 NMatT=0.
 FoFJK:  IHMeth= 1 ICntrl=    2127 DoSepK=T KAlg= 0 I1Cent=   0 FoldK=F
 IRaf=         1 NMat=   1 IRICut=       1 DoRegI=T DoRafI=F ISym2E= 0.
 FoFCou: FMM=F IPFlag=           0 FMFlag=      100000 FMFlg1=         800
         NFxFlg=           0 DoJE=F BraDBF=F KetDBF=F FulRan=T
         wScrn=  0.000000 ICntrl=    2527 IOpCl=  0 I1Cent=           0 NGrid=           0
         NMat0=    1 NMatS0=      1 NMatT0=    0 NMatD0=    1 NMtDS0=    0 NMtDT0=    0
 Symmetry not used in FoFCou.
 Leave Link  703 at Tue Oct  5 00:46:05 2021, MaxMem=  6710886400 cpu:       262.6
 (Enter /usr/local/gqt/g09/l716.exe)
 Dipole        =-1.26411721D+00 2.63692013D+00 1.61067926D-03
 ***** Axes restored to original set *****
 -------------------------------------------------------------------
 Center     Atomic                   Forces (Hartrees/Bohr)
 Number     Number              X              Y              Z
 -------------------------------------------------------------------
      1        7          -0.001256338    0.000904754    0.000167272
      2        6           0.001084585    0.000523370   -0.000072773
      3        6           0.000794226   -0.000839658   -0.000247930
      4        6           0.000970388    0.001313408    0.000186541
      5        7          -0.003510585    0.002549117    0.005697707
      6        6          -0.000378413    0.000069105   -0.000088244
      7        6           0.000111491    0.000267594    0.000018911
      8        6           0.000083985   -0.000203893   -0.000002192
      9        6          -0.000372072   -0.000044115   -0.000003023
     10        6          -0.001588676    0.001055196   -0.000116907
     11        6           0.002526249   -0.002369795   -0.003213272
     12        1           0.000013826   -0.000013346   -0.000006725
     13        1           0.000010988    0.000030416    0.000017657
     14        1          -0.000004401   -0.000005918    0.000002046
     15        1          -0.000004329    0.000027259   -0.000004431
     16        1          -0.000175122   -0.000012887    0.000022092
     17        1          -0.000535402    0.000653545    0.000345000
     18        1          -0.000368072    0.000451081   -0.000258957
     19        1           0.006213567   -0.000870206   -0.001728815
     20        1          -0.000934479   -0.004979153   -0.000016320
     21        1          -0.002681415    0.001494124   -0.000697639
 -------------------------------------------------------------------
 Cartesian Forces:  Max     0.006213567 RMS     0.001617711
 Leave Link  716 at Tue Oct  5 00:46:05 2021, MaxMem=  6710886400 cpu:         0.4
 (Enter /usr/local/gqt/g09/l103.exe)

 GradGradGradGradGradGradGradGradGradGradGradGradGradGradGradGradGradGrad
 Berny optimization.
 FormGI is forming the generalized inverse of G from B-inverse, IUseBI=4.
 Internal  Forces:  Max     0.009449876 RMS     0.002063281
 Search for a local minimum.
 Step number   1 out of a maximum of  117
 All quantities printed in internal units (Hartrees-Bohrs-Radians)
 RMS Force = .20633D-02 SwitMx=.10000D-02 MixMth= 1
 Mixed Optimization -- RFO/linear search
 Second derivative matrix not updated -- first step.
 ITU=  0
     Eigenvalues ---    0.01090   0.01181   0.01466   0.01605   0.01837
     Eigenvalues ---    0.01946   0.02095   0.02114   0.02154   0.02177
     Eigenvalues ---    0.02204   0.02250   0.02266   0.02303   0.07380
     Eigenvalues ---    0.07457   0.07860   0.07935   0.16000   0.16000
     Eigenvalues ---    0.16000   0.16000   0.16000   0.16000   0.16000
     Eigenvalues ---    0.16000   0.16000   0.16000   0.22000   0.22590
     Eigenvalues ---    0.24516   0.25000   0.25000   0.25000   0.25000
     Eigenvalues ---    0.35098   0.35098   0.35141   0.35141   0.35515
     Eigenvalues ---    0.35841   0.35928   0.35964   0.36060   0.36077
     Eigenvalues ---    0.37209   0.38839   0.39124   0.39778   0.42858
     Eigenvalues ---    0.43397   0.45545   0.45808   0.48316   0.49072
     Eigenvalues ---    0.52162   0.57863
 RFO step:  Lambda=-2.07754662D-03 EMin= 1.08972053D-02
 Linear search not attempted -- first point.
 Iteration  1 RMS(Cart)=  0.03289351 RMS(Int)=  0.00060172
 Iteration  2 RMS(Cart)=  0.00074869 RMS(Int)=  0.00013424
 Iteration  3 RMS(Cart)=  0.00000063 RMS(Int)=  0.00013423
 ITry= 1 IFail=0 DXMaxC= 1.35D-01 DCOld= 1.00D+10 DXMaxT= 3.00D-01 DXLimC= 3.00D+00 Rises=F
 Variable       Old X    -DE/DX   Delta X   Delta X   Delta X     New X
                                 (Linear)    (Quad)   (Total)
    R1        2.55158  -0.00046   0.00000  -0.00061  -0.00061   2.55097
    R2        2.62937   0.00531   0.00000   0.01186   0.01186   2.64123
    R3        2.71856   0.00036   0.00000   0.00091   0.00091   2.71947
    R4        2.66997  -0.00030   0.00000  -0.00128  -0.00129   2.66869
    R5        2.64024   0.00036   0.00000   0.00078   0.00078   2.64102
    R6        2.71200  -0.00158   0.00000  -0.00457  -0.00457   2.70744
    R7        2.64376   0.00029   0.00000   0.00059   0.00059   2.64434
    R8        2.51037  -0.00127   0.00000  -0.00197  -0.00197   2.50840
    R9        2.73163   0.00572   0.00000   0.01465   0.01465   2.74628
   R10        2.60379  -0.00015   0.00000  -0.00025  -0.00025   2.60354
   R11        2.03961  -0.00002   0.00000  -0.00005  -0.00005   2.03956
   R12        2.65824   0.00010   0.00000   0.00028   0.00028   2.65853
   R13        2.04137   0.00001   0.00000   0.00002   0.00002   2.04139
   R14        2.60224  -0.00018   0.00000  -0.00034  -0.00034   2.60190
   R15        2.03988   0.00001   0.00000   0.00002   0.00002   2.03990
   R16        2.04194  -0.00002   0.00000  -0.00006  -0.00006   2.04188
   R17        2.04846   0.00011   0.00000   0.00030   0.00030   2.04877
   R18        2.05517   0.00001   0.00000   0.00004   0.00004   2.05520
   R19        2.05515   0.00003   0.00000   0.00008   0.00008   2.05523
   R20        2.04331   0.00343   0.00000   0.00952   0.00952   2.05283
   R21        2.05447  -0.00486   0.00000  -0.01374  -0.01374   2.04072
   R22        2.05447  -0.00222   0.00000  -0.00628  -0.00628   2.04819
    A1        1.85444  -0.00087   0.00000  -0.00195  -0.00195   1.85249
    A2        2.26335  -0.00511   0.00000  -0.02103  -0.02104   2.24231
    A3        2.16540   0.00598   0.00000   0.02298   0.02298   2.18837
    A4        1.87063   0.00087   0.00000   0.00326   0.00326   1.87389
    A5        2.28059  -0.00057   0.00000  -0.00192  -0.00192   2.27867
    A6        2.13197  -0.00030   0.00000  -0.00134  -0.00134   2.13063
    A7        1.90941  -0.00009   0.00000  -0.00192  -0.00192   1.90749
    A8        2.08009   0.00017   0.00000   0.00114   0.00114   2.08123
    A9        2.29368  -0.00007   0.00000   0.00078   0.00078   2.29447
   A10        1.78976   0.00193   0.00000   0.00662   0.00663   1.79639
   A11        2.00054  -0.00183   0.00000  -0.00602  -0.00603   1.99451
   A12        2.06424   0.00945   0.00000   0.03687   0.03684   2.10107
   A13        2.21841  -0.00762   0.00000  -0.03085  -0.03088   2.18753
   A14        2.04049   0.00021   0.00000   0.00086   0.00086   2.04134
   A15        2.13220  -0.00012   0.00000  -0.00049  -0.00049   2.13171
   A16        2.11050  -0.00010   0.00000  -0.00037  -0.00037   2.11013
   A17        2.13080  -0.00004   0.00000  -0.00015  -0.00015   2.13064
   A18        2.07557   0.00000   0.00000  -0.00003  -0.00003   2.07554
   A19        2.07682   0.00004   0.00000   0.00019   0.00019   2.07700
   A20        2.10417  -0.00005   0.00000  -0.00028  -0.00028   2.10388
   A21        2.08075   0.00004   0.00000   0.00026   0.00026   2.08101
   A22        2.09827   0.00001   0.00000   0.00002   0.00002   2.09829
   A23        2.07887   0.00002   0.00000  -0.00022  -0.00022   2.07864
   A24        2.09211  -0.00001   0.00000   0.00011   0.00011   2.09222
   A25        2.11220  -0.00001   0.00000   0.00012   0.00012   2.11232
   A26        1.88223  -0.00062   0.00000  -0.00610  -0.00609   1.87613
   A27        1.94355   0.00053   0.00000   0.00432   0.00430   1.94784
   A28        1.94353   0.00040   0.00000   0.00378   0.00376   1.94730
   A29        1.89026  -0.00038   0.00000  -0.00482  -0.00482   1.88544
   A30        1.89024  -0.00024   0.00000  -0.00347  -0.00347   1.88678
   A31        1.91226   0.00025   0.00000   0.00559   0.00555   1.91781
   A32        1.86331   0.00890   0.00000   0.06134   0.06118   1.92449
   A33        1.93549   0.00117   0.00000   0.00509   0.00456   1.94004
   A34        1.93550  -0.00513   0.00000  -0.03626  -0.03621   1.89929
   A35        1.90983  -0.00330   0.00000  -0.01129  -0.01199   1.89784
   A36        1.90983  -0.00144   0.00000  -0.00507  -0.00464   1.90520
   A37        1.90922  -0.00010   0.00000  -0.01237  -0.01270   1.89652
    D1       -0.00010   0.00006   0.00000   0.00316   0.00314   0.00303
    D2        3.14150   0.00008   0.00000   0.00334   0.00333  -3.13836
    D3       -3.14071  -0.00005   0.00000  -0.00242  -0.00238   3.14010
    D4        0.00089  -0.00004   0.00000  -0.00224  -0.00219  -0.00130
    D5        0.00006  -0.00011   0.00000  -0.00479  -0.00478  -0.00473
    D6        3.14146  -0.00032   0.00000  -0.01658  -0.01679   3.12467
    D7        3.14073  -0.00001   0.00000   0.00036   0.00049   3.14122
    D8       -0.00105  -0.00022   0.00000  -0.01143  -0.01153  -0.01258
    D9       -0.00096   0.00002   0.00000  -0.00184  -0.00182  -0.00278
   D10        2.07064  -0.00052   0.00000  -0.00900  -0.00900   2.06164
   D11       -2.07253   0.00046   0.00000   0.00399   0.00402  -2.06851
   D12       -3.14141  -0.00011   0.00000  -0.00828  -0.00830   3.13347
   D13       -1.06981  -0.00065   0.00000  -0.01545  -0.01548  -1.08529
   D14        1.07020   0.00033   0.00000  -0.00246  -0.00246   1.06775
   D15        0.00012   0.00000   0.00000  -0.00087  -0.00083  -0.00071
   D16       -3.14150  -0.00002   0.00000  -0.00099  -0.00099   3.14070
   D17       -3.14148  -0.00001   0.00000  -0.00103  -0.00100   3.14070
   D18        0.00009  -0.00003   0.00000  -0.00116  -0.00116  -0.00107
   D19        3.14148   0.00002   0.00000   0.00125   0.00124  -3.14047
   D20       -0.00011   0.00000   0.00000   0.00028   0.00028   0.00017
   D21       -0.00010   0.00004   0.00000   0.00145   0.00145   0.00135
   D22        3.14150   0.00001   0.00000   0.00049   0.00049  -3.14120
   D23       -0.00008  -0.00006   0.00000  -0.00187  -0.00193  -0.00201
   D24        3.14154  -0.00004   0.00000  -0.00173  -0.00175   3.13979
   D25       -0.00006   0.00001   0.00000   0.00020   0.00020   0.00014
   D26        3.14158   0.00001   0.00000   0.00028   0.00029  -3.14131
   D27        3.14150  -0.00002   0.00000   0.00004   0.00001   3.14151
   D28       -0.00004  -0.00001   0.00000   0.00012   0.00010   0.00006
   D29        0.00002   0.00011   0.00000   0.00406   0.00408   0.00410
   D30       -3.14137   0.00033   0.00000   0.01706   0.01677  -3.12459
   D31       -1.99527  -0.00022   0.00000   0.00793   0.00747  -1.98780
   D32        0.08389   0.00183   0.00000   0.03424   0.03438   0.11826
   D33        2.20874  -0.00101   0.00000  -0.00283  -0.00252   2.20622
   D34        1.14610  -0.00045   0.00000  -0.00549  -0.00595   1.14016
   D35       -3.05792   0.00160   0.00000   0.02081   0.02096  -3.03696
   D36       -0.93307  -0.00124   0.00000  -0.01626  -0.01594  -0.94901
   D37        0.00009  -0.00002   0.00000  -0.00085  -0.00084  -0.00075
   D38       -3.14155  -0.00002   0.00000  -0.00095  -0.00095   3.14069
   D39       -3.14150   0.00000   0.00000   0.00011   0.00010  -3.14140
   D40        0.00004   0.00000   0.00000   0.00000   0.00000   0.00004
   D41       -0.00008   0.00000   0.00000  -0.00006  -0.00006  -0.00013
   D42        3.14159   0.00000   0.00000   0.00008   0.00007  -3.14152
   D43        3.14156   0.00000   0.00000   0.00005   0.00005  -3.14157
   D44        0.00004   0.00000   0.00000   0.00018   0.00018   0.00022
   D45        0.00006   0.00001   0.00000   0.00039   0.00039   0.00044
   D46       -3.14159   0.00000   0.00000   0.00031   0.00030  -3.14129
   D47        3.14158   0.00001   0.00000   0.00026   0.00026  -3.14135
   D48       -0.00007   0.00000   0.00000   0.00017   0.00017   0.00010
         Item               Value     Threshold  Converged?
 Maximum Force            0.009450     0.000450     NO 
 RMS     Force            0.002063     0.000300     NO 
 Maximum Displacement     0.134553     0.001800     NO 
 RMS     Displacement     0.032828     0.001200     NO 
 Predicted change in Energy=-1.052311D-03
 Lowest energy point so far.  Saving SCF results.
 GradGradGradGradGradGradGradGradGradGradGradGradGradGradGradGradGradGrad

 Leave Link  103 at Tue Oct  5 00:46:05 2021, MaxMem=  6710886400 cpu:         0.7
 (Enter /usr/local/gqt/g09/l202.exe)
                          Input orientation:                          
 ---------------------------------------------------------------------
 Center     Atomic      Atomic             Coordinates (Angstroms)
 Number     Number       Type             X           Y           Z
 ---------------------------------------------------------------------
      1          7           0        1.048425    0.620045    0.004155
      2          6           0       -0.291174    0.453498    0.002327
      3          6           0       -0.543166   -0.936046    0.003585
      4          6           0        0.702942   -1.643067    0.005339
      5          7           0        1.599637   -0.664347    0.002432
      6          6           0       -1.323956    1.395063   -0.000557
      7          6           0       -2.612878    0.908412   -0.000487
      8          6           0       -2.890760   -0.470701    0.001448
      9          6           0       -1.866518   -1.390856    0.003206
     10          6           0        1.797944    1.848527    0.002153
     11          6           0        3.041446   -0.845406   -0.017477
     12          1           0       -1.132523    2.457238   -0.001882
     13          1           0       -3.435589    1.608487   -0.001823
     14          1           0       -3.918316   -0.801426    0.001352
     15          1           0       -2.070999   -2.451849    0.004422
     16          1           0        1.085004    2.665278   -0.004109
     17          1           0        2.411863    1.944478    0.894733
     18          1           0        2.419915    1.936022   -0.885726
     19          1           0        3.349916   -1.306325   -0.951538
     20          1           0        3.554356    0.098891    0.089395
     21          1           0        3.324446   -1.489107    0.807325
 ---------------------------------------------------------------------
                    Distance matrix (angstroms):
                    1          2          3          4          5
     1  N    0.000000
     2  C    1.349913   0.000000
     3  C    2.225889   1.412209   0.000000
     4  C    2.289331   2.320315   1.432713   0.000000
     5  N    1.397677   2.196530   2.159960   1.327390   0.000000
     6  C    2.495770   1.397566   2.458398   3.652203   3.576112
     7  C    3.672645   2.365854   2.772319   4.183867   4.496540
     8  C    4.087409   2.758984   2.393271   3.780099   4.494571
     9  C    3.541273   2.425562   1.399326   2.581809   3.541476
    10  C    1.439080   2.512075   3.637945   3.659271   2.520687
    11  C    2.473893   3.576856   3.585819   2.470907   1.453269
    12  H    2.851640   2.173214   3.444089   4.492381   4.148375
    13  H    4.591670   3.349831   3.852375   5.263088   5.524428
    14  H    5.166150   3.838098   3.377834   4.697276   5.519656
    15  H    4.378052   3.407172   2.152193   2.889442   4.082736
    16  H    2.045576   2.604971   3.952281   4.325262   3.369168
    17  H    2.099099   3.213381   4.221819   4.072090   2.874349
    18  H    2.098730   3.215045   4.221314   4.068398   2.867681
    19  H    3.149779   4.155041   4.025599   2.834692   2.094198
    20  H    2.560968   3.862826   4.227072   3.342460   2.100242
    21  H    3.205289   4.182636   3.988771   2.745755   2.074379
                    6          7          8          9         10
     6  C    0.000000
     7  C    1.377733   0.000000
     8  C    2.436381   1.406832   0.000000
     9  C    2.838262   2.417375   1.376866   0.000000
    10  C    3.154663   4.509897   5.230942   4.891000   0.000000
    11  C    4.906804   5.920097   5.944058   4.938224   2.967146
    12  H    1.079289   2.142502   3.415294   3.917474   2.993022
    13  H    2.122392   1.080259   2.149389   3.384977   5.239037
    14  H    3.399304   2.151213   1.079468   2.134785   6.300625
    15  H    3.918779   3.403677   2.144054   1.080518   5.784631
    16  H    2.723334   4.094011   5.063703   5.016349   1.084160
    17  H    3.880689   5.207963   5.894816   5.497619   1.087567
    18  H    3.884936   5.212354   5.897682   5.498347   1.087581
    19  H    5.481509   6.431522   6.368083   5.303759   3.642970
    20  H    5.048374   6.220786   6.470833   5.622512   2.480690
    21  H    5.529806   6.453873   6.349439   5.253795   3.757434
                   11         12         13         14         15
    11  C    0.000000
    12  H    5.322567   0.000000
    13  H    6.926314   2.454484   0.000000
    14  H    6.959926   4.287137   2.457787   0.000000
    15  H    5.358939   4.997991   4.283512   2.477193   0.000000
    16  H    4.019047   2.227266   4.642475   6.086976   6.012105
    17  H    3.001992   3.691817   5.925319   6.957678   6.341640
    18  H    2.979345   3.697656   5.930893   6.960869   6.341457
    19  H    1.086310   5.929461   7.445882   7.347796   5.622490
    20  H    1.079905   5.247568   7.151680   7.527227   6.177224
    21  H    1.083854   6.007747   7.479832   7.319843   5.539165
                   16         17         18         19         20
    16  H    0.000000
    17  H    1.757277   0.000000
    18  H    1.758138   1.780497   0.000000
    19  H    4.669161   3.854397   3.373728   0.000000
    20  H    3.562693   2.315179   2.369149   1.760672   0.000000
    21  H    4.788782   3.553865   3.926335   1.768518   1.757845
                   21
    21  H    0.000000
 Stoichiometry    C9H10N2
 Framework group  C1[X(C9H10N2)]
 Deg. of freedom    57
 Full point group                 C1      NOp   1
 RotChk:  IX=0 Diff= 1.10D-02
 Largest Abelian subgroup         C1      NOp   1
 Largest concise Abelian subgroup C1      NOp   1
                         Standard orientation:                         
 ---------------------------------------------------------------------
 Center     Atomic      Atomic             Coordinates (Angstroms)
 Number     Number       Type             X           Y           Z
 ---------------------------------------------------------------------
      1          7           0       -1.041136    0.624375   -0.005483
      2          6           0        0.297182    0.447863   -0.001716
      3          6           0        0.538829   -0.943518   -0.003289
      4          6           0       -0.712502   -1.641244   -0.007277
      5          7           0       -1.601893   -0.655880   -0.005234
      6          6           0        1.336937    1.381714    0.003198
      7          6           0        2.622200    0.885484    0.004830
      8          6           0        2.889814   -0.495657    0.002624
      9          6           0        1.858758   -1.408164   -0.001140
     10          6           0       -1.781495    1.858400   -0.003999
     11          6           0       -3.045037   -0.826214    0.012408
     12          1           0        1.153411    2.445283    0.004764
     13          1           0        3.450095    1.579416    0.007757
     14          1           0        3.914880   -0.834021    0.004106
     15          1           0        2.055339   -2.470648   -0.002577
     16          1           0       -1.062508    2.669819    0.003748
     17          1           0       -2.393332    1.959353   -0.897456
     18          1           0       -2.404140    1.950087    0.882984
     19          1           0       -3.358341   -1.285280    0.945771
     20          1           0       -3.550744    0.121926   -0.094767
     21          1           0       -3.331571   -1.467387   -0.813143
 ---------------------------------------------------------------------
 Rotational constants (GHZ):      2.4930584      0.9345370      0.6855969
 Leave Link  202 at Tue Oct  5 00:46:05 2021, MaxMem=  6710886400 cpu:         0.0
 (Enter /usr/local/gqt/g09/l301.exe)
 Standard basis: 6-311+G(d,p) (5D, 7F)
 Ernie: Thresh=  0.10000D-02 Tol=  0.10000D-05 Strict=F.
 There are   313 symmetry adapted cartesian basis functions of A   symmetry.
 There are   302 symmetry adapted basis functions of A   symmetry.
[...]
 3,0.00046880,-0.01142883,-0.03033470,-0.00083452,0.00499206,-0.0010409
 1,0.00012043,-0.00163775,-0.00259240,-0.00001169,0.00014393,0.00215561
 ,-0.00013296,0.00133141,0.00013137,-0.00012101,-0.05526820,0.52316832,
 -0.02052984,-0.02184378,-0.05086967,0.00898347,0.00470599,-0.00669196,
 0.00350570,-0.00304690,0.00271198,-0.00383847,0.00112486,0.00347821,0.
 00461199,0.00678268,-0.00793502,-0.00171797,0.00111409,-0.00093576,0.0
 0094271,0.00111521,0.00020007,-0.00002223,-0.00111780,-0.00020437,-0.0
 0061648,0.00088580,0.00112485,-0.00555274,-0.01071221,0.57895691,-0.00
 986057,0.00956287,-0.00105433,-0.00062193,-0.00126540,0.00012173,0.001
 45789,-0.00185479,0.00070899,-0.03127197,-0.00675378,0.00167696,-0.233
 40284,0.01414387,0.00640857,0.00130334,0.00010032,0.00002756,0.0002047
 7,-0.00052720,0.00004808,0.00024516,-0.00047257,0.00002101,-0.00078406
 ,-0.00007690,0.00005083,0.00185308,0.00164714,0.00029753,0.49564161,0.
 04264656,-0.00544701,-0.00221478,-0.00253654,-0.00753103,0.00101775,-0
 .00637905,-0.00193048,0.00145237,-0.01988299,0.00937455,-0.00087311,0.
 00042110,-0.10343866,0.00415781,0.00294214,0.00060271,0.00004296,-0.00
 099117,-0.00146395,0.00016561,-0.00075156,0.00117715,-0.00015110,0.000
 84232,0.00139851,-0.00004319,0.00251331,-0.00143907,0.00093894,0.01505
 435,0.63944214,-0.00613159,-0.00012439,-0.00373034,0.00109760,0.001094
 16,-0.00026033,0.00058548,0.00100753,0.01091952,0.00090196,-0.00167744
 ,-0.00779927,0.01086972,0.00359134,-0.06585375,-0.00062515,0.00019613,
 0.00145598,0.00033124,0.00028492,0.00006191,0.00005025,-0.00042032,-0.
 00061563,-0.00027806,-0.00001510,0.00112023,-0.00026510,0.00003108,0.0
 0022668,0.00474604,-0.00655354,0.58623454,0.00146779,-0.00166036,0.000
 07409,0.00903105,0.02336747,-0.00212153,-0.00297665,0.00178850,0.00016
 885,-0.00058913,0.00122646,-0.00015239,0.00004199,0.00116658,-0.000180
 84,-0.06702220,-0.04773512,0.00476908,-0.00040809,-0.03006171,0.002754
 39,-0.00469381,-0.00087349,0.00038036,-0.00131904,0.00017240,-0.000007
 25,-0.00024529,0.00106249,-0.00032732,0.00005694,-0.00006887,0.0000158
 2,0.06620814,-0.00165844,0.00042486,-0.00034884,-0.00627925,-0.0147644
 2,0.00180122,0.00315916,0.00090134,0.00026271,0.00003155,-0.00134271,0
 .00016187,0.00051611,-0.00045552,0.00008508,-0.04934200,-0.33841546,0.
 02747267,0.00091580,-0.00568005,0.00077422,-0.00164216,0.00200778,0.00
 054123,0.00068027,0.00026041,-0.00013079,-0.00011644,-0.00017816,0.000
 13881,-0.00016009,0.00004589,-0.00000893,0.05345795,0.35598615,0.00012
 324,-0.00026549,-0.00261247,0.00020678,0.00098035,0.00344008,-0.000031
 41,0.00035591,0.00561017,-0.00001493,0.00011465,0.00008683,-0.00009312
 ,-0.00000119,-0.00025643,0.00504954,0.02729578,-0.03659583,0.00003714,
 0.00158015,0.00310338,0.00048892,0.00050611,0.00806219,-0.00010887,-0.
 00010761,-0.00103757,-0.00008547,0.00023063,-0.00056878,0.00000944,0.0
 0001080,0.00010293,-0.00561086,-0.03010865,0.02631717,-0.00066741,0.00
 155040,-0.00015382,-0.00385987,-0.00288558,0.00058151,-0.00047222,-0.0
 0058080,0.00004016,0.00033689,0.00016908,-0.00002626,-0.00069445,-0.00
 070524,0.00008232,-0.01751282,0.02031266,-0.00121982,-0.22661081,0.141
 85710,-0.00775490,0.00797101,-0.00646036,0.00046154,0.00108970,-0.0018
 9865,0.00029728,0.00008634,0.00021745,0.00005786,0.00013161,0.00014156
 ,-0.00003453,0.00121415,-0.00006122,-0.00015569,0.23820569,0.00009946,
 0.00073974,-0.00012804,-0.00329138,0.00013152,0.00081363,-0.00101031,-
 0.00021959,-0.00003750,0.00022603,0.00005340,-0.00004773,-0.00013345,-
 0.00007454,0.00003387,-0.01062667,0.00987157,-0.00019136,0.14292873,-0
 .17995280,0.00864459,0.02463240,-0.01424078,0.00097012,-0.00235177,-0.
 00488386,0.00101156,-0.00002298,-0.00005594,0.00004622,-0.00004167,0.0
 0006592,-0.00003999,0.00044214,0.00079233,-0.00053162,-0.15170936,0.18
 731445,-0.00015612,0.00004835,0.00084728,0.00079172,0.00083372,0.00778
 263,0.00003941,-0.00014279,-0.00094881,-0.00006823,-0.00003777,-0.0004
 6159,0.00006892,-0.00002941,-0.00016894,0.00155587,-0.00095727,0.00464
 307,-0.00784215,0.00861331,-0.03993006,-0.00227013,0.00178009,0.003800
 03,0.00033341,0.00102045,0.00589019,-0.00001434,-0.00003790,0.00010058
 ,-0.00002295,-0.00005510,-0.00034246,-0.00018694,-0.00048976,-0.005071
 82,0.00797241,-0.01021830,0.02737086,-0.00001810,-0.00019252,0.0000722
 8,0.00046452,0.00039725,-0.00007584,-0.00104866,0.00415794,-0.00018269
 ,-0.00017291,-0.00081308,0.00010554,-0.00085863,0.00024634,-0.00007026
 ,0.00148653,-0.00066599,0.00014641,-0.00153852,0.00170052,-0.00005841,
 -0.32069710,-0.08390438,0.01409324,-0.01732803,-0.00975949,0.00135917,
 0.00006301,0.00012115,0.00001374,0.00011690,-0.00013449,0.00000821,-0.
 00019993,0.00007124,0.00000667,0.00069127,-0.00029779,-0.00007515,0.33
 818908,-0.00011257,0.00012382,0.00001531,0.00086850,-0.00096095,0.0000
 1156,0.00299800,-0.00276359,0.00094046,0.00042675,0.00061951,0.0000297
 4,0.00034912,0.00000225,-0.00009461,-0.00001170,-0.00517177,0.00092551
 ,-0.03034993,-0.00573769,0.00139907,-0.08404757,-0.08467920,0.00639968
 ,0.02233141,0.00993323,-0.00117316,0.00000564,0.00002215,0.,0.00002698
 ,0.00012403,-0.00002973,-0.00137882,-0.00037291,0.00010319,0.00042918,
 0.00120773,-0.00041911,0.08910035,0.08669118,0.00004239,-0.00006564,-0
 .00020316,-0.00009043,0.00000292,-0.00062090,-0.00006194,0.00083309,0.
 00803865,-0.00011001,0.00007890,0.00101970,-0.00001174,0.00002384,-0.0
 0072278,0.00011264,0.00097032,0.00538112,0.00276992,0.00057043,0.00171
 186,0.01418506,0.00647105,-0.03571537,-0.00157580,-0.00044038,0.002907
 54,-0.00003558,0.00005788,-0.00007748,-0.00001397,-0.00003171,-0.00022
 093,0.00012399,0.00005793,0.00040223,-0.00014256,-0.00039294,-0.003446
 27,-0.01517946,-0.00756223,0.02648392,-0.00017072,-0.00177068,0.000078
 76,-0.00479013,-0.00059502,0.00026970,0.00002971,-0.02986039,0.0029380
 0,0.00193860,0.00082753,-0.00014803,0.00022504,0.00013977,-0.00006680,
 -0.00090736,0.00021838,-0.00002971,-0.00314864,0.00298690,-0.00001108,
 0.00892284,0.02377432,-0.00226351,-0.06977625,-0.05474895,0.00568667,-
 0.00034765,0.00034401,0.00011889,0.00002151,0.00009060,-0.00000993,0.0
 0015653,-0.00006029,-0.00002974,0.00024953,0.00113402,-0.00009467,0.00
 104948,-0.00070331,-0.00008320,0.06668642,0.00020805,-0.00053604,0.000
 10201,-0.00104414,0.00103498,0.00053376,0.00004185,-0.00610973,0.00090
 959,0.00046037,0.00059514,-0.00037835,-0.00035889,0.00028668,-0.000072
 08,-0.00006981,0.00034440,-0.00014671,0.00370660,-0.00010312,0.0007192
 0,-0.00705261,-0.01425406,0.00192368,-0.05387732,-0.33310055,0.0283321
 8,0.00003066,0.00027846,0.00005086,0.00010100,-0.00005860,0.00002486,-
 0.00005844,-0.00013719,-0.00011032,-0.00033435,-0.00080629,0.00006929,
 0.00004575,0.00091050,-0.00054899,0.05838920,0.35182460,0.00003365,0.0
 0005472,-0.00003075,0.00029957,0.00058097,0.00663020,0.00043430,0.0014
 9742,0.00345567,-0.00033928,-0.00038131,-0.00303817,0.00003509,0.00008
 516,-0.00026268,0.00000497,-0.00019287,-0.00121781,-0.00010538,0.00073
 303,0.00845666,0.00068238,0.00114689,0.00481696,0.00536766,0.02836941,
 -0.04190366,0.00003981,-0.00001665,0.00016921,0.00000011,0.00003661,0.
 00024360,-0.00003484,-0.00009193,-0.00130176,0.00003025,0.00005113,-0.
 00006092,-0.00013918,-0.00052011,-0.00497477,-0.00631483,-0.03136666,0
 .02906743,0.01352177,-0.01969967,0.00580172,-0.00031331,0.00009038,0.0
 0034960,0.00022252,-0.00004151,0.00010430,0.00042887,-0.00131562,-0.00
 018202,-0.00304059,-0.00283280,0.00054410,-0.00021002,-0.00135219,0.00
 000427,-0.00023841,0.00004696,-0.00032856,-0.00002345,0.00018258,0.000
 05089,0.00016956,0.00016219,-0.00009050,-0.15111713,0.13218347,-0.0524
 2983,-0.00080350,0.00036408,-0.00021035,-0.00100919,0.00026928,0.00030
 884,0.00004100,-0.00000481,-0.00002212,0.00001063,0.00004879,0.0000618
 1,0.00003768,0.00002389,-0.00001179,0.15936112,0.01795116,-0.03166645,
 0.00668176,0.00123853,0.00050243,-0.00009894,0.00024840,0.00003709,0.0
 0000956,0.00048549,-0.00244341,0.00001170,-0.00528762,0.00103262,0.000
 50630,0.00007298,0.00023931,0.00004817,-0.00021468,0.00012161,0.000070
 44,-0.00007916,0.00020930,-0.00004151,0.00030436,0.00019594,-0.0000450
 7,0.12098948,-0.20372956,0.06159387,-0.00076586,0.00012071,-0.00001430
 ,-0.00039141,0.00054783,0.00000517,0.00001880,0.00000509,0.00001210,-0
 .00000719,0.00004233,-0.00002073,0.00002852,-0.00001294,0.00000212,-0.
 13176372,0.22890957,0.00405445,-0.00285653,0.00000045,-0.00046902,0.00
 022762,0.00097505,-0.00013436,0.00019840,-0.00015546,0.00046711,-0.000
 06751,0.00028519,-0.00045499,-0.00193247,-0.00011350,0.00020625,0.0000
 7378,-0.00010429,-0.00014365,-0.00025149,-0.00006326,-0.00005517,0.000
 18417,0.00001709,0.00014152,-0.00004109,-0.00005219,-0.05241067,0.0648
 0479,-0.07178849,-0.00007483,-0.00018730,-0.00015349,0.00017180,-0.000
 08714,0.00022409,-0.00001211,-0.00000058,0.00001161,-0.00000786,-0.000
 01148,0.00000647,0.00000099,-0.00000978,-0.00002025,0.05579937,-0.0671
 7729,0.07145288,-0.01191785,-0.01087746,-0.01696666,0.00371558,-0.0007
 0206,-0.00195579,0.00020553,-0.00104952,0.00070131,-0.00060179,-0.0004
 0486,-0.00003531,-0.00036210,0.00203197,0.00025930,-0.00054593,0.00034
 434,0.00003117,0.00016021,0.00025290,-0.00005106,-0.00011894,-0.000218
 68,0.00000733,-0.00001315,0.00004448,0.00016015,-0.06871375,-0.0077319
 3,-0.06717468,0.00007002,-0.00022843,0.00033857,0.00010171,0.00005521,
 -0.00005058,-0.00003969,0.00001079,-0.00002080,-0.00003210,-0.00000398
 ,0.00001628,-0.00004642,-0.00004422,0.00002044,-0.00461840,-0.00311268
 ,-0.01797912,0.07369561,-0.02095770,-0.01666557,-0.02772961,0.00621803
 ,-0.00016985,-0.00208304,0.00111320,-0.00225326,0.00044753,-0.00228612
 ,-0.00080590,0.00098062,-0.00033181,0.00388012,-0.00209252,-0.00157249
 ,0.00061930,0.00001385,0.00072480,0.00088607,0.00009878,-0.00008215,-0
 .00087731,0.00000539,-0.00051058,0.00023194,0.00021641,-0.00617744,-0.
 05134782,-0.03020697,-0.00021349,-0.00005476,-0.00034187,-0.00018128,0
 .00008179,-0.00018839,-0.00002605,0.00003699,0.00001501,-0.00003386,-0
 .00001061,-0.00004403,-0.00004894,-0.00004504,0.00003409,0.00538757,0.
 00514312,0.02324440,0.01811022,0.06141971,-0.00363938,-0.00596056,0.00
 728800,0.00234443,0.00031522,-0.00007689,0.00069582,-0.00083920,-0.000
 32409,-0.00046588,-0.00019241,-0.00017016,-0.00077067,0.00056257,0.000
 12128,-0.00090878,0.00017640,-0.00019321,0.00040366,0.00035154,-0.0001
 6633,-0.00001987,-0.00047739,0.00007245,-0.00042840,0.00015449,-0.0000
 0533,-0.06877826,-0.03187713,-0.29383149,-0.00033650,0.00002114,-0.000
 31738,0.00003444,-0.00000771,0.00010590,-0.00001891,0.00001941,-0.0000
 0321,-0.00002027,-0.00000789,0.00001949,-0.00001591,-0.00002084,0.0000
 0707,-0.00071970,-0.00109207,-0.00722155,0.07839823,0.03981042,0.31092
 303,-0.01945416,-0.00432995,0.00626995,0.00260719,-0.00230363,0.001767
 17,-0.00066632,-0.00037351,-0.00001536,-0.00017538,-0.00018754,-0.0001
 3066,-0.00037578,0.00159602,-0.00046138,-0.00024539,-0.00000472,0.0000
 2625,0.00014212,0.00019908,0.00003228,-0.00006275,-0.00020452,0.000026
 17,-0.00005279,-0.00025338,-0.00008844,-0.22200992,0.00832984,0.133936
 90,-0.00023678,0.00076309,-0.00002699,0.00019756,0.00000393,-0.0000406
 4,-0.00005397,0.00000868,0.00000809,-0.00003446,-0.00001348,-0.0000092
 2,-0.00010218,-0.00005250,-0.00001237,-0.01288456,0.00001432,0.0108083
 2,0.00883816,0.00034490,-0.00614799,0.24426851,-0.03476272,-0.00494064
 ,0.01640026,0.00261881,-0.00391218,0.00173352,-0.00083162,-0.00085432,
 -0.00013827,-0.00104177,-0.00040580,-0.00028606,0.00025197,0.00288493,
 0.00061753,-0.00022397,0.00016639,0.00006746,0.00016751,0.00043406,-0.
 00021210,0.00001539,-0.00025196,0.00006569,-0.00001787,-0.00037016,-0.
 00022056,0.01616915,-0.04853037,-0.01178117,-0.00031002,-0.00097990,0.
 00085383,-0.00023958,0.00025718,0.00012931,-0.00002885,0.00000524,-0.0
 0000120,-0.00001630,0.00001436,0.00003416,-0.00012829,-0.00005126,-0.0
 0001674,0.01825724,0.00069100,-0.01610054,0.00346798,0.00019347,-0.000
 91001,-0.00415633,0.05684413,-0.00597540,0.00364017,0.00604610,-0.0017
 1599,-0.00143871,0.00009062,-0.00042996,0.00033370,-0.00020111,0.00017
 244,0.00026977,-0.00009309,0.00082946,-0.00048583,0.00021860,0.0000594
 9,-0.00018485,-0.00001393,-0.00002505,-0.00007023,0.00004108,-0.000011
 84,0.00002680,0.00000455,-0.00000025,-0.00008924,0.00000402,0.13724463
 ,-0.00906342,-0.15388288,0.00047978,-0.00036266,0.00027527,0.00012621,
 -0.00000794,-0.00002168,-0.00001167,0.00000226,0.00000414,-0.00000968,
 -0.00000697,-0.00001254,-0.00002979,-0.00002617,-0.00000351,-0.0092046
 5,-0.00052084,0.00648688,0.02447450,-0.00227086,-0.01674325,-0.1458434
 1,0.01043271,0.15809602,0.00254436,-0.00182380,0.00015905,-0.00159587,
 -0.00024684,0.00007212,-0.00217270,0.00000144,-0.00179399,0.00099773,0
 .00371063,0.00216557,-0.02539755,-0.01454791,0.03262984,0.00054403,-0.
 00028784,-0.00023501,-0.00056844,-0.00031303,0.00004524,-0.00031057,0.
 00064883,0.00006327,0.00069941,0.00032449,-0.00031428,-0.00023797,0.00
 025424,0.00011995,-0.07445421,-0.02285771,0.07400062,-0.00000920,0.000
 06560,-0.00002296,-0.00002545,0.00001675,0.00004551,-0.00006963,0.0000
 2845,0.00004655,0.00000039,-0.00005864,-0.00002509,0.00004030,0.000035
 15,-0.00002531,0.00011521,0.00006877,-0.00001245,0.00003763,0.00048699
 ,0.00024439,0.09148175,-0.00093332,0.00002043,-0.00037241,0.00105493,0
 .00018379,0.00009667,0.00017877,-0.00006162,-0.00054798,-0.00155743,-0
 .00009819,0.00058560,0.00275281,0.00146763,-0.00462570,-0.00047380,0.0
 0020637,0.00017628,0.00027828,0.00023762,-0.00003629,0.00004058,-0.000
 29023,0.00007446,-0.00020717,0.00006139,0.00002593,0.00040472,-0.00017
 519,-0.00054557,-0.02612362,-0.07309821,0.07368305,-0.00000597,0.00000
 382,-0.00001010,-0.00000903,0.00000174,-0.00002954,-0.00000748,-0.0000
 0103,-0.00000670,-0.00001113,-0.00001909,-0.00002678,-0.00012617,0.000
 02217,0.00008444,-0.00005386,0.00001319,0.00003041,0.00021895,-0.00077
 528,-0.00022289,0.02876196,0.07216907,0.00050341,0.00032801,0.00005553
 ,0.00025259,-0.00007119,-0.00008207,0.00027751,-0.00044945,-0.00010922
 ,-0.00111259,-0.00075411,-0.00015108,0.00243891,-0.00044206,0.00606395
 ,0.00006541,0.00001857,-0.00000621,0.00004541,-0.00002157,-0.00000223,
 0.00001652,-0.00009741,0.00001432,-0.00016492,-0.00005977,0.00000778,0
 .00011127,0.00059845,-0.00043057,0.07980795,0.07281926,-0.27154881,0.0
 0002113,-0.00002719,0.00000510,0.00000714,-0.00000253,0.00000531,0.000
 01160,-0.00000176,0.00000582,0.00000046,0.00001427,-0.00000264,-0.0002
 5020,-0.00001987,0.00016877,-0.00001881,0.00000809,0.00006518,-0.00017
 059,-0.00057168,0.00047385,-0.08872166,-0.07918158,0.28661005,0.002122
 74,-0.00175696,-0.00036468,-0.00133734,-0.00021793,0.00015120,-0.00214
 126,0.00005681,0.00169377,-0.00029651,0.00315713,-0.00272886,-0.026766
 82,-0.02305770,-0.02380592,0.00048423,-0.00019354,0.00021533,-0.000483
 28,-0.00026481,0.00003527,-0.00031026,0.00051209,-0.00015478,0.0005747
 8,0.00043257,0.00021461,-0.00024793,0.00011425,-0.00055891,-0.09349199
 ,-0.05711968,-0.07905378,-0.00001665,0.00007334,0.00001387,-0.00002375
 ,0.00000992,-0.00004146,-0.00007143,0.00002482,-0.00004536,0.00000429,
 -0.00005062,0.00003513,0.00014794,0.00010383,0.00017787,0.00013575,0.0
 0035181,0.00030405,-0.00002392,0.00028066,-0.00008148,0.00573178,0.006
 32745,0.00709629,0.11243492,-0.00082392,0.00007750,0.00057125,0.000764
 54,0.00012017,-0.00018194,0.00009839,0.00026240,0.00037139,-0.00123365
 ,-0.00014431,-0.00053443,0.00301352,0.00323380,0.00545736,-0.00040820,
 0.00014847,-0.00013169,0.00021588,0.00020008,-0.00003194,0.00002122,-0
 .00022125,-0.00001858,-0.00011149,0.00005334,-0.00005273,0.00045645,-0
 .00019091,0.00048594,-0.06262008,-0.13124972,-0.11083320,-0.00001289,0
 .00001073,0.00001148,-0.00001059,0.00000688,0.00002988,-0.00000912,0.0
 0000167,0.00001161,-0.00000966,-0.00002001,0.00002501,0.00004065,-0.00
 000677,-0.00007610,0.00017354,-0.00036230,-0.00010213,0.00029781,-0.00
 047036,0.00023679,0.00481612,0.00563758,0.00820876,0.06818183,0.135535
 00,-0.00035575,-0.00036633,0.00001275,-0.00047977,0.00010645,-0.000060
 66,-0.00009575,0.00027450,-0.00052046,0.00145180,0.00039412,0.00007186
 ,0.00047911,0.00433825,0.00680660,0.00012205,-0.00007084,0.00002955,-0
 .00011920,-0.00007969,0.00000653,-0.00002784,0.00016699,0.00001018,0.0
 0019882,-0.00001697,-0.00000078,-0.00015416,-0.00067598,0.00038843,-0.
 08417142,-0.11033683,-0.19672118,-0.00001794,0.00001656,-0.00000283,-0
 .00000246,-0.00000070,0.00000271,0.00000115,0.00000115,0.00000506,0.00
 000271,-0.00000315,-0.00001319,0.00038764,0.00005460,-0.00006096,-0.00
 004952,-0.00006926,0.00033138,0.00007318,0.00021288,-0.00067230,-0.011
 62402,-0.01664088,-0.01910953,0.09070834,0.11940446,0.20513171,-0.0066
 5355,-0.00264470,0.00067107,-0.00027763,0.00208516,-0.00016878,0.00047
 945,-0.00019668,0.00000221,0.00220125,0.00045464,-0.00004955,-0.014520
 20,0.04139328,-0.00552468,-0.00049489,-0.00033076,0.00005760,-0.000068
 28,0.00026297,-0.00002292,0.00002425,-0.00002954,0.00000282,-0.0000048
 4,-0.00016247,0.00001660,-0.00046560,-0.00118985,0.00017972,-0.0561749
 8,0.04517139,-0.00631005,0.00001331,0.00002042,-0.00000016,-0.00005675
 ,-0.00001874,-0.00000027,-0.00000193,-0.00001663,0.00000061,-0.0000326
 6,-0.00000584,-0.00000060,0.00027719,0.00013131,-0.00006060,-0.0000276
 6,0.00010258,0.00010234,0.00028720,0.00004162,-0.00029174,0.00264901,-
 0.01050947,-0.00021682,0.00357471,-0.01284033,0.00367301,0.06927260,0.
 00003276,0.00070480,-0.00023576,-0.00097755,-0.00018165,0.00013335,0.0
 0003805,0.00087640,-0.00024461,-0.00381739,-0.00070944,0.00028544,0.00
 152776,-0.00359982,0.00025887,0.00018087,0.00016089,-0.00000462,-0.000
 01670,-0.00010705,0.00000204,0.00000033,0.00004545,0.00000920,0.000081
 07,-0.00001206,-0.00000389,0.00004820,0.00006405,0.00027111,0.06054895
 ,-0.32566022,0.03929191,-0.00001607,0.00002633,-0.00000017,0.00001384,
 0.00000120,-0.00000405,0.00000115,0.00000497,0.00000123,0.00000342,-0.
 00002085,-0.00000351,0.00007941,0.00003901,-0.00001831,-0.00006374,0.0
 0008672,0.00004574,0.00010292,0.00005146,-0.00019160,0.00091635,-0.005
 50596,-0.00029524,0.00303474,-0.01262201,0.00329069,-0.06171837,0.3463
 5778,0.00042442,0.00009661,0.00056715,0.00008177,-0.00007043,0.0004701
 6,-0.00005057,-0.00015302,-0.00037197,0.00036078,0.00008826,0.00044378
 ,0.00068503,-0.00204911,-0.00157889,0.00003457,0.00000153,0.00009036,-
 0.00000553,-0.00001576,-0.00004382,0.00000012,0.00001325,0.00004838,-0
 .00000149,0.00000161,-0.00006236,-0.00004563,0.00001291,-0.00014045,-0
 .00873059,0.04014608,-0.05307708,-0.00000025,-0.00000340,0.00000911,0.
 00000227,-0.00000150,-0.00002431,0.00000079,0.00000138,0.00001234,0.00
 000102,0.00000333,-0.00001668,0.00003719,0.00003483,0.00010494,-0.0001
 0495,0.00015196,0.00011911,-0.00000129,-0.00030903,-0.00009685,-0.0068
 1734,0.02748955,-0.00203331,0.00618950,-0.02285120,0.00436512,0.007940
 18,-0.04258783,0.05121526\\-0.00001037,0.00002441,-0.00000601,0.000007
 80,-0.00000205,0.00000428,-0.00000714,-0.00000419,0.00000410,0.0000175
 9,0.00001473,0.00000251,-0.00000039,-0.00003300,0.00000325,-0.00000242
 ,-0.00000503,-0.00000405,-0.00000308,-0.00001008,-0.00000081,-0.000000
 36,-0.00000514,0.00000199,0.00000881,-0.00000222,0.00000338,-0.0000054
 4,-0.00000462,-0.00000548,0.00000202,0.00000723,-0.00000777,-0.0000066
 9,-0.00000348,-0.00000511,-0.00000325,-0.00000866,-0.00000237,0.000003
 01,-0.00001022,0.00000315,0.00000789,-0.00000587,0.00000594,-0.0000062
 8,0.00000348,-0.00000534,-0.00000375,0.00000804,-0.00000429,-0.0000043
 0,0.00000544,-0.00000241,0.00000025,0.00000775,0.00000200,0.00000315,0
 .00001452,0.00000654,0.00000295,0.00000898,0.00000650\\\@


 "A LITTLE BIT GOES A LONG WAY"
 R.S. MULLIKEN AS QUOTED BY K. RUEDENBERG
 Job cpu time:       0 days  2 hours  0 minutes 39.4 seconds.
 File lengths (MBytes):  RWF=    230 Int=      0 D2E=      0 Chk=     14 Scr=      1
 Normal termination of Gaussian 09 at Tue Oct  5 01:12:37 2021.
