 Entering Gaussian System, Link 0=g09
 Input=NHC31-.gjf
 Output=NHC31-.log
 Initial command:
 /usr/local/gqt/g09/l1.exe "/usr/local/gqt/lixogaussian/Gau-21157.inp" -scrdir="/usr/local/gqt/lixogaussian/"
 Entering Link 1 = /usr/local/gqt/g09/l1.exe PID=     21159.
  
 Copyright (c) 1988,1990,1992,1993,1995,1998,2003,2009,2013,
            Gaussian, Inc.  All Rights Reserved.
  
 This is part of the Gaussian(R) 09 program.  It is based on
 the Gaussian(R) 03 system (copyright 2003, Gaussian, Inc.),
 the Gaussian(R) 98 system (copyright 1998, Gaussian, Inc.),
 the Gaussian(R) 94 system (copyright 1995, Gaussian, Inc.),
 the Gaussian 92(TM) system (copyright 1992, Gaussian, Inc.),
 the Gaussian 90(TM) system (copyright 1990, Gaussian, Inc.),
 the Gaussian 88(TM) system (copyright 1988, Gaussian, Inc.),
 the Gaussian 86(TM) system (copyright 1986, Carnegie Mellon
 University), and the Gaussian 82(TM) system (copyright 1983,
 Carnegie Mellon University). Gaussian is a federally registered
 trademark of Gaussian, Inc.
  
 This software contains proprietary and confidential information,
 including trade secrets, belonging to Gaussian, Inc.
  
 This software is provided under written license and may be
 used, copied, transmitted, or stored only in accord with that
 written license.
  
 The following legend is applicable only to US Government
 contracts under FAR:
  
                    RESTRICTED RIGHTS LEGEND
  
 Use, reproduction and disclosure by the US Government is
 subject to restrictions as set forth in subparagraphs (a)
 and (c) of the Commercial Computer Software - Restricted
 Rights clause in FAR 52.227-19.
  
 Gaussian, Inc.
 340 Quinnipiac St., Bldg. 40, Wallingford CT 06492
  
  
 ---------------------------------------------------------------
 Warning -- This program may not be used in any manner that
 competes with the business of Gaussian, Inc. or will provide
 assistance to any competitor of Gaussian, Inc.  The licensee
 of this program is prohibited from giving any competitor of
 Gaussian, Inc. access to this program.  By using this program,
 the user acknowledges that Gaussian, Inc. is engaged in the
 business of creating and licensing software in the field of
 computational chemistry and represents and warrants to the
 licensee that it is not a competitor of Gaussian, Inc. and that
 it will not use this program in any manner prohibited above.
 ---------------------------------------------------------------
  

 Cite this work as:
 Gaussian 09, Revision D.01,
 M. J. Frisch, G. W. Trucks, H. B. Schlegel, G. E. Scuseria, 
 M. A. Robb, J. R. Cheeseman, G. Scalmani, V. Barone, B. Mennucci, 
 G. A. Petersson, H. Nakatsuji, M. Caricato, X. Li, H. P. Hratchian, 
 A. F. Izmaylov, J. Bloino, G. Zheng, J. L. Sonnenberg, M. Hada, 
 M. Ehara, K. Toyota, R. Fukuda, J. Hasegawa, M. Ishida, T. Nakajima, 
 Y. Honda, O. Kitao, H. Nakai, T. Vreven, J. A. Montgomery, Jr., 
 J. E. Peralta, F. Ogliaro, M. Bearpark, J. J. Heyd, E. Brothers, 
 K. N. Kudin, V. N. Staroverov, T. Keith, R. Kobayashi, J. Normand, 
 K. Raghavachari, A. Rendell, J. C. Burant, S. S. Iyengar, J. Tomasi, 
 M. Cossi, N. Rega, J. M. Millam, M. Klene, J. E. Knox, J. B. Cross, 
 V. Bakken, C. Adamo, J. Jaramillo, R. Gomperts, R. E. Stratmann, 
 O. Yazyev, A. J. Austin, R. Cammi, C. Pomelli, J. W. Ochterski, 
 R. L. Martin, K. Morokuma, V. G. Zakrzewski, G. A. Voth, 
 P. Salvador, J. J. Dannenberg, S. Dapprich, A. D. Daniels, 
 O. Farkas, J. B. Foresman, J. V. Ortiz, J. Cioslowski, 
 and D. J. Fox, Gaussian, Inc., Wallingford CT, 2013.
 
 ******************************************
 Gaussian 09:  ES64L-G09RevD.01 24-Apr-2013
                 9-Jun-2021 
 ******************************************
 %nprocshared=16
 Will use up to   16 processors via shared memory.
 %mem=25GB
 %chk=NHC31-.chk
 ----------------------------------------------------------
 #p opt freq n12sx/6-311+g(d,p) scrf=(iefpcm,solvent=water)
 ----------------------------------------------------------
 1/14=-1,18=20,19=15,26=3,38=1/1,3;
 2/9=110,12=2,17=6,18=5,40=1/2;
 3/5=4,6=6,7=111,11=2,16=1,25=1,30=1,70=2201,71=1,72=1,74=-69/1,2,3;
 4//1;
 5/5=2,38=5,53=1/2;
 6/7=2,8=2,9=2,10=2,28=1/1;
 7//1,2,3,16;
 1/14=-1,18=20,19=15,26=3/3(2);
 2/9=110/2;
 99//99;
 2/9=110/2;
 3/5=4,6=6,7=111,11=2,16=1,25=1,30=1,70=2205,71=1,72=1,74=-69/1,2,3;
 4/5=5,16=3,69=1/1;
 5/5=2,38=5,53=1/2;
 7//1,2,3,16;
 1/14=-1,18=20,19=15,26=3/3(-5);
 2/9=110/2;
 6/7=2,8=2,9=2,10=2,19=2,28=1/1;
 99/9=1/99;
 Leave Link    1 at Wed Jun  9 17:53:37 2021, MaxMem=  3355443200 cpu:         0.7
 (Enter /usr/local/gqt/g09/l101.exe)
 -----
 TITLE
 -----
 Symbolic Z-matrix:
 Charge =  0 Multiplicity = 1
 N                    -1.20974   0.54775   0.30847 
 N                     0.16337   0.43915   0.18177 
 N                     0.23647  -0.81116  -0.49963 
 C                    -0.99984  -1.26436  -0.68273 
 N                    -1.81814  -0.40456  -0.17743 
 C                    -3.31135  -0.54698  -0.18182 
 C                     1.21002   1.32678   0.61125 
 H                    -3.59221  -1.49975  -0.68393 
 H                    -3.6857   -0.55622   0.8663 
 H                    -3.76389   0.30893  -0.73082 
 H                     0.76243   2.21322   1.1139 
 H                     1.87784   0.79423   1.32481 
 H                     1.79959   1.65976  -0.27209 
 
 NAtoms=     13 NQM=       13 NQMF=       0 NMMI=      0 NMMIF=      0
                NMic=       0 NMicF=      0.
                    Isotopes and Nuclear Properties:
 (Nuclear quadrupole moments (NQMom) in fm**2, nuclear magnetic moments (NMagM)
  in nuclear magnetons)

  Atom         1           2           3           4           5           6           7           8           9          10
 IAtWgt=          14          14          14          12          14          12          12           1           1           1
 AtmWgt=  14.0030740  14.0030740  14.0030740  12.0000000  14.0030740  12.0000000  12.0000000   1.0078250   1.0078250   1.0078250
 NucSpn=           2           2           2           0           2           0           0           1           1           1
 AtZEff=   0.0000000   0.0000000   0.0000000   0.0000000   0.0000000   0.0000000   0.0000000   0.0000000   0.0000000   0.0000000
 NQMom=    2.0440000   2.0440000   2.0440000   0.0000000   2.0440000   0.0000000   0.0000000   0.0000000   0.0000000   0.0000000
 NMagM=    0.4037610   0.4037610   0.4037610   0.0000000   0.4037610   0.0000000   0.0000000   2.7928460   2.7928460   2.7928460
 AtZNuc=   7.0000000   7.0000000   7.0000000   6.0000000   7.0000000   6.0000000   6.0000000   1.0000000   1.0000000   1.0000000

  Atom        11          12          13
 IAtWgt=           1           1           1
 AtmWgt=   1.0078250   1.0078250   1.0078250
 NucSpn=           1           1           1
 AtZEff=   0.0000000   0.0000000   0.0000000
 NQMom=    0.0000000   0.0000000   0.0000000
 NMagM=    2.7928460   2.7928460   2.7928460
 AtZNuc=   1.0000000   1.0000000   1.0000000
 Leave Link  101 at Wed Jun  9 17:53:37 2021, MaxMem=  3355443200 cpu:         6.6
 (Enter /usr/local/gqt/g09/l103.exe)

 GradGradGradGradGradGradGradGradGradGradGradGradGradGradGradGradGradGrad
 Berny optimization.
 Initialization pass.
                           ----------------------------
                           !    Initial Parameters    !
                           ! (Angstroms and Degrees)  !
 --------------------------                            --------------------------
 ! Name  Definition              Value          Derivative Info.                !
 --------------------------------------------------------------------------------
 ! R1    R(1,2)                  1.3832         estimate D2E/DX2                !
 ! R2    R(1,5)                  1.2301         estimate D2E/DX2                !
 ! R3    R(2,3)                  1.4258         estimate D2E/DX2                !
 ! R4    R(2,7)                  1.438          estimate D2E/DX2                !
 ! R5    R(3,4)                  1.3294         estimate D2E/DX2                !
 ! R6    R(4,5)                  1.29           estimate D2E/DX2                !
 ! R7    R(5,6)                  1.5            estimate D2E/DX2                !
 ! R8    R(6,8)                  1.113          estimate D2E/DX2                !
 ! R9    R(6,9)                  1.113          estimate D2E/DX2                !
 ! R10   R(6,10)                 1.113          estimate D2E/DX2                !
 ! R11   R(7,11)                 1.113          estimate D2E/DX2                !
 ! R12   R(7,12)                 1.113          estimate D2E/DX2                !
 ! R13   R(7,13)                 1.113          estimate D2E/DX2                !
 ! A1    A(2,1,5)              113.2048         estimate D2E/DX2                !
 ! A2    A(1,2,3)               99.4113         estimate D2E/DX2                !
 ! A3    A(1,2,7)              130.2944         estimate D2E/DX2                !
 ! A4    A(3,2,7)              130.2943         estimate D2E/DX2                !
 ! A5    A(2,3,4)              108.4867         estimate D2E/DX2                !
 ! A6    A(3,4,5)              107.9831         estimate D2E/DX2                !
 ! A7    A(1,5,4)              110.9141         estimate D2E/DX2                !
 ! A8    A(1,5,6)              124.543          estimate D2E/DX2                !
 ! A9    A(4,5,6)              124.543          estimate D2E/DX2                !
 ! A10   A(5,6,8)              109.5            estimate D2E/DX2                !
 ! A11   A(5,6,9)              109.4419         estimate D2E/DX2                !
 ! A12   A(5,6,10)             109.4618         estimate D2E/DX2                !
 ! A13   A(8,6,9)              109.4419         estimate D2E/DX2                !
 ! A14   A(8,6,10)             109.4618         estimate D2E/DX2                !
 ! A15   A(9,6,10)             109.5199         estimate D2E/DX2                !
 ! A16   A(2,7,11)             109.5            estimate D2E/DX2                !
 ! A17   A(2,7,12)             109.4418         estimate D2E/DX2                !
 ! A18   A(2,7,13)             109.4619         estimate D2E/DX2                !
 ! A19   A(11,7,12)            109.4418         estimate D2E/DX2                !
 ! A20   A(11,7,13)            109.4619         estimate D2E/DX2                !
 ! A21   A(12,7,13)            109.5199         estimate D2E/DX2                !
 ! D1    D(5,1,2,3)              0.0129         estimate D2E/DX2                !
 ! D2    D(5,1,2,7)           -179.9872         estimate D2E/DX2                !
 ! D3    D(2,1,5,4)              0.0414         estimate D2E/DX2                !
 ! D4    D(2,1,5,6)           -179.9586         estimate D2E/DX2                !
 ! D5    D(1,2,3,4)             -0.0603         estimate D2E/DX2                !
 ! D6    D(7,2,3,4)            179.9398         estimate D2E/DX2                !
 ! D7    D(1,2,7,11)             0.0001         estimate D2E/DX2                !
 ! D8    D(1,2,7,12)           119.9636         estimate D2E/DX2                !
 ! D9    D(1,2,7,13)          -120.0004         estimate D2E/DX2                !
 ! D10   D(3,2,7,11)          -180.0            estimate D2E/DX2                !
 ! D11   D(3,2,7,12)           -60.0364         estimate D2E/DX2                !
 ! D12   D(3,2,7,13)            59.9996         estimate D2E/DX2                !
 ! D13   D(2,3,4,5)              0.0877         estimate D2E/DX2                !
 ! D14   D(3,4,5,1)             -0.0811         estimate D2E/DX2                !
 ! D15   D(3,4,5,6)            179.9189         estimate D2E/DX2                !
 ! D16   D(1,5,6,8)            180.0            estimate D2E/DX2                !
 ! D17   D(1,5,6,9)            -60.0363         estimate D2E/DX2                !
 ! D18   D(1,5,6,10)            59.9996         estimate D2E/DX2                !
 ! D19   D(4,5,6,8)              0.0            estimate D2E/DX2                !
 ! D20   D(4,5,6,9)            119.9636         estimate D2E/DX2                !
 ! D21   D(4,5,6,10)          -120.0004         estimate D2E/DX2                !
 --------------------------------------------------------------------------------
 Trust Radius=3.00D-01 FncErr=1.00D-07 GrdErr=1.00D-06
 Number of steps in this run=     65 maximum allowed number of steps=    100.
 GradGradGradGradGradGradGradGradGradGradGradGradGradGradGradGradGradGrad

 Leave Link  103 at Wed Jun  9 17:53:37 2021, MaxMem=  3355443200 cpu:         0.1
 (Enter /usr/local/gqt/g09/l202.exe)
                          Input orientation:                          
 ---------------------------------------------------------------------
 Center     Atomic      Atomic             Coordinates (Angstroms)
 Number     Number       Type             X           Y           Z
 ---------------------------------------------------------------------
      1          7           0       -1.209735    0.547745    0.308466
      2          7           0        0.163365    0.439145    0.181766
      3          7           0        0.236465   -0.811155   -0.499634
      4          6           0       -0.999835   -1.264355   -0.682734
      5          7           0       -1.818135   -0.404555   -0.177434
      6          6           0       -3.311351   -0.546981   -0.181822
      7          6           0        1.210018    1.326784    0.611253
      8          1           0       -3.592213   -1.499753   -0.683928
      9          1           0       -3.685695   -0.556220    0.866295
     10          1           0       -3.763889    0.308929   -0.730819
     11          1           0        0.762433    2.213225    1.113904
     12          1           0        1.877844    0.794225    1.324806
     13          1           0        1.799587    1.659762   -0.272094
 ---------------------------------------------------------------------
                    Distance matrix (angstroms):
                    1          2          3          4          5
     1  N    0.000000
     2  N    1.383203   0.000000
     3  N    2.142692   1.425798   0.000000
     4  C    2.076112   2.236584   1.329418   0.000000
     5  N    1.230091   2.183391   2.119084   1.290038   0.000000
     6  C    2.419834   3.630192   3.571805   2.471567   1.499999
     7  C    2.560036   1.438000   2.598588   3.643056   3.576209
     8  H    3.294434   4.314292   3.894471   2.603044   2.145541
     9  H    2.767723   4.034178   4.161021   3.180376   2.144797
    10  H    2.767824   4.033992   4.160633   3.180806   2.145053
    11  H    2.704071   2.091680   3.468000   4.292675   3.896108
    12  H    3.259884   2.090947   2.932567   4.068047   4.165820
    13  H    3.260314   2.091200   2.932670   4.068888   4.166327
                    6          7          8          9         10
     6  C    0.000000
     7  C    4.958099   0.000000
     8  H    1.113000   5.720859   0.000000
     9  H    1.113000   5.251548   1.817191   0.000000
    10  H    1.113001   5.251375   1.817416   1.818068   0.000000
    11  H    5.088552   1.113000   5.998445   5.245663   5.245659
    12  H    5.567451   1.113000   6.262497   5.743422   6.024140
    13  H    5.567724   1.112999   6.262879   6.024519   5.743470
                   11         12         13
    11  H    0.000000
    12  H    1.817191   0.000000
    13  H    1.817416   1.818067   0.000000
 Stoichiometry    C3H6N4
 Framework group  C1[X(C3H6N4)]
 Deg. of freedom    33
 Full point group                 C1      NOp   1
 Largest Abelian subgroup         C1      NOp   1
 Largest concise Abelian subgroup C1      NOp   1
                         Standard orientation:                         
 ---------------------------------------------------------------------
 Center     Atomic      Atomic             Coordinates (Angstroms)
 Number     Number       Type             X           Y           Z
 ---------------------------------------------------------------------
      1          7           0       -0.069104   -0.759913   -0.000222
      2          7           0        1.123806   -0.059758    0.000121
      3          7           0        0.612877    1.271351    0.000644
      4          6           0       -0.715263    1.213085   -0.000767
      5          7           0       -1.059385   -0.030209   -0.000221
      6          6           0       -2.477049   -0.520338    0.000338
      7          6           0        2.481028   -0.534935   -0.000012
      8          1           0       -3.170999    0.349835    0.000208
      9          1           0       -2.656139   -1.137137   -0.908647
     10          1           0       -2.655827   -1.137085    0.909421
     11          1           0        2.484997   -1.647928   -0.000470
     12          1           0        3.003937   -0.162233   -0.909093
     13          1           0        3.004371   -0.162612    0.908974
 ---------------------------------------------------------------------
 Rotational constants (GHZ):      7.9184720      2.0673227      1.6755436
 Leave Link  202 at Wed Jun  9 17:53:37 2021, MaxMem=  3355443200 cpu:         0.0
 (Enter /usr/local/gqt/g09/l301.exe)
 Standard basis: 6-311+G(d,p) (5D, 7F)
 Ernie: Thresh=  0.10000D-02 Tol=  0.10000D-05 Strict=F.
 There are   197 symmetry adapted cartesian basis functions of A   symmetry.
 There are   190 symmetry adapted basis functions of A   symmetry.
   190 basis functions,   300 primitive gaussians,   197 cartesian basis functions
    26 alpha electrons       26 beta electrons
       nuclear repulsion energy       299.2609194112 Hartrees.
 IExCor= 5547 DFT=T Ex+Corr=N12SX ExCW=0 ScaHFX=  0.250000
 ScaDFX=  1.000000  1.000000  1.000000  1.000000 ScalE2=  1.000000  1.000000
 IRadAn=      0 IRanWt=     -1 IRanGd=            0 ICorTp=0 IEmpDi=  4
  HFx wShort=  0.110000 wLong=  0.000000 cFull=  0.000000 cShort=  1.000000 cLong=  0.000000
  DFx wShort=  0.110000 wLong=  0.000000 cFull=  0.000000 cShort=  1.000000 cLong=  0.000000
 NAtoms=   13 NActive=   13 NUniq=   13 SFac= 1.00D+00 NAtFMM=   60 NAOKFM=F Big=F
 Integral buffers will be    131072 words long.
 Raffenetti 2 integral format.
 Two-electron integral symmetry is turned on.
 ------------------------------------------------------------------------------
 Polarizable Continuum Model (PCM)
 =================================
 Model                : PCM (using non-symmetric T matrix).
 Atomic radii         : UFF (Universal Force Field).
 Polarization charges : Total charges.
 Charge compensation  : None.
 Solution method      : On-the-fly selection.
 Cavity type          : Scaled VdW (van der Waals Surface) (Alpha=1.100).
 Cavity algorithm     : GePol (No added spheres)
                        Default sphere list used, NSphG=   13.
                        Lebedev-Laikov grids with approx.  5.0 points / Ang**2.
                        Smoothing algorithm: Karplus/York (Gamma=1.0000).
                        Polarization charges: spherical gaussians, with
                                              point-specific exponents (IZeta= 3).
                        Self-potential: point-specific (ISelfS= 7).
                        Self-field    : sphere-specific E.n sum rule (ISelfD= 2).
 1st derivatives      : Analytical E(r).r(x)/FMM algorithm (CHGder, D1EAlg=3).
                        Cavity 1st derivative terms included.
 Solvent              : Water, Eps=  78.355300 Eps(inf)=   1.777849
 ------------------------------------------------------------------------------
 Spheres list:
 ISph  on   Nord     Re0    Alpha      Xe            Ye            Ze
    1   N      1    1.8300  1.100     -0.069104     -0.759913     -0.000222
    2   N      2    1.8300  1.100      1.123806     -0.059758      0.000121
    3   N      3    1.8300  1.100      0.612877      1.271351      0.000644
    4   C      4    1.9255  1.100     -0.715263      1.213085     -0.000767
    5   N      5    1.8300  1.100     -1.059385     -0.030209     -0.000221
    6   C      6    1.9255  1.100     -2.477049     -0.520338      0.000338
    7   C      7    1.9255  1.100      2.481028     -0.534935     -0.000012
    8   H      8    1.4430  1.100     -3.170999      0.349835      0.000208
    9   H      9    1.4430  1.100     -2.656139     -1.137137     -0.908647
   10   H     10    1.4430  1.100     -2.655827     -1.137085      0.909421
   11   H     11    1.4430  1.100      2.484997     -1.647928     -0.000470
   12   H     12    1.4430  1.100      3.003937     -0.162233     -0.909093
   13   H     13    1.4430  1.100      3.004371     -0.162612      0.908974
 ------------------------------------------------------------------------------
 GePol: Number of generator spheres                  =      13
 GePol: Total number of spheres                      =      13
 GePol: Number of exposed spheres                    =      13 (100.00%)
 GePol: Number of points                             =    1187
 GePol: Average weight of points                     =       0.14
 GePol: Minimum weight of points                     =   0.14D-09
 GePol: Maximum weight of points                     =    0.20577
 GePol: Number of points with low weight             =      42
 GePol: Fraction of low-weight points (<1% of avg)   =       3.54%
 GePol: Cavity surface area                          =    162.243 Ang**2
 GePol: Cavity volume                                =    149.631 Ang**3
 Leave Link  301 at Wed Jun  9 17:53:37 2021, MaxMem=  3355443200 cpu:         0.6
 (Enter /usr/local/gqt/g09/l302.exe)
 NPDir=0 NMtPBC=     1 NCelOv=     1 NCel=       1 NClECP=     1 NCelD=      1
         NCelK=      1 NCelE2=     1 NClLst=     1 CellRange=     0.0.
 One-electron integrals computed using PRISM.
 NBasis=   190 RedAO= T EigKep=  2.26D-05  NBF=   190
 NBsUse=   190 1.00D-06 EigRej= -1.00D+00 NBFU=   190
 Precomputing XC quadrature grid using
 IXCGrd= 4 IRadAn=           0 IRanWt=          -1 IRanGd=           0 AccXCQ= 0.00D+00.
 Generated NRdTot=       0 NPtTot=           0 NUsed=           0 NTot=          32
 NSgBfM=   197   197   197   197   197 MxSgAt=    13 MxSgA2=    13.
 Leave Link  302 at Wed Jun  9 17:53:38 2021, MaxMem=  3355443200 cpu:         2.4
 (Enter /usr/local/gqt/g09/l303.exe)
 DipDrv:  MaxL=1.
 Leave Link  303 at Wed Jun  9 17:53:38 2021, MaxMem=  3355443200 cpu:         0.5
 (Enter /usr/local/gqt/g09/l401.exe)
 ExpMin= 4.38D-02 ExpMax= 6.29D+03 ExpMxC= 9.49D+02 IAcc=2 IRadAn=         4 AccDes= 0.00D+00
 Harris functional with IExCor= 5547 and IRadAn=       4 diagonalized for initial guess.
 HarFok:  IExCor= 5547 AccDes= 0.00D+00 IRadAn=         4 IDoV= 1 UseB2=F ITyADJ=14
 ICtDFT=  3500011 ScaDFX=  1.000000  1.000000  1.000000  1.000000
 FoFCou: FMM=F IPFlag=           0 FMFlag=      100000 FMFlg1=           0
         NFxFlg=           0 DoJE=T BraDBF=F KetDBF=T FulRan=T
         wScrn=  0.000000 ICntrl=     500 IOpCl=  0 I1Cent=   200000004 NGrid=           0
         NMat0=    1 NMatS0=      1 NMatT0=    0 NMatD0=    1 NMtDS0=    0 NMtDT0=    0
 Petite list used in FoFCou.
 Harris En= -326.673173730261    
 JPrj=0 DoOrth=F DoCkMO=F.
 Leave Link  401 at Wed Jun  9 17:53:38 2021, MaxMem=  3355443200 cpu:         5.4
 (Enter /usr/local/gqt/g09/l502.exe)
 Closed shell SCF:
 Using DIIS extrapolation, IDIIS=  1040.
 Integral symmetry usage will be decided dynamically.
 Keep R1 ints in memory in canonical form, NReq=334045203.
 IVT=      139593 IEndB=      139593 NGot=  3355443200 MDV=  3026044438
 LenX=  3026044438 LenY=  3026005188
 Requested convergence on RMS density matrix=1.00D-08 within 128 cycles.
 Requested convergence on MAX density matrix=1.00D-06.
 Requested convergence on             energy=1.00D-06.
 No special actions if energy rises.
 FoFCou: FMM=F IPFlag=           0 FMFlag=           0 FMFlg1=           0
         NFxFlg=           0 DoJE=F BraDBF=F KetDBF=F FulRan=T
         wScrn=  0.000000 ICntrl=     600 IOpCl=  0 I1Cent=           0 NGrid=           0
         NMat0=    1 NMatS0=  18145 NMatT0=    0 NMatD0=    1 NMtDS0=    0 NMtDT0=    0
 Symmetry not used in FoFCou.

 Cycle   1  Pass 1  IDiag  1:
 Inv3:  Mode=1 IEnd=     4226907.
 Iteration    1 A*A^-1 deviation from unit magnitude is 4.44D-15 for   1183.
 Iteration    1 A*A^-1 deviation from orthogonality  is 2.06D-15 for   1009    772.
 Iteration    1 A^-1*A deviation from unit magnitude is 4.77D-15 for   1183.
 Iteration    1 A^-1*A deviation from orthogonality  is 4.01D-14 for   1035    967.
 E= -336.414250213178    
 DIIS: error= 8.61D-02 at cycle   1 NSaved=   1.
 NSaved= 1 IEnMin= 1 EnMin= -336.414250213178     IErMin= 1 ErrMin= 8.61D-02
 ErrMax= 8.61D-02  0.00D+00 EMaxC= 1.00D-01 BMatC= 1.04D+00 BMatP= 1.04D+00
 IDIUse=3 WtCom= 1.39D-01 WtEn= 8.61D-01
 Coeff-Com:  0.100D+01
 Coeff-En:   0.100D+01
 Coeff:      0.100D+01
 Gap=     0.032 Goal=   None    Shift=    0.000
 GapD=    0.032 DampG=0.250 DampE=0.500 DampFc=0.2500 IDamp=-1.
 Damping current iteration by 2.50D-01
 RMSDP=9.22D-03 MaxDP=3.70D-01              OVMax= 9.43D-01

 Cycle   2  Pass 1  IDiag  1:
 E= -336.445932339287     Delta-E=       -0.031682126109 Rises=F Damp=T
 DIIS: error= 6.01D-02 at cycle   2 NSaved=   2.
 NSaved= 2 IEnMin= 2 EnMin= -336.445932339287     IErMin= 2 ErrMin= 6.01D-02
 ErrMax= 6.01D-02  0.00D+00 EMaxC= 1.00D-01 BMatC= 4.36D-01 BMatP= 1.04D+00
 IDIUse=3 WtCom= 3.99D-01 WtEn= 6.01D-01
 Coeff-Com: -0.818D+00 0.182D+01
 Coeff-En:   0.381D+00 0.619D+00
 Coeff:     -0.970D-01 0.110D+01
 Gap=    -0.175 Goal=   None    Shift=    0.000
 RMSDP=4.22D-03 MaxDP=2.38D-01 DE=-3.17D-02 OVMax= 9.16D-01

 Cycle   3  Pass 1  IDiag  1:
 E= -336.607471605139     Delta-E=       -0.161539265852 Rises=F Damp=F
 DIIS: error= 2.80D-02 at cycle   3 NSaved=   3.
 NSaved= 3 IEnMin= 3 EnMin= -336.607471605139     IErMin= 3 ErrMin= 2.80D-02
 ErrMax= 2.80D-02  0.00D+00 EMaxC= 1.00D-01 BMatC= 7.77D-02 BMatP= 4.36D-01
 IDIUse=3 WtCom= 7.20D-01 WtEn= 2.80D-01
 Coeff-Com: -0.369D+00 0.664D+00 0.705D+00
 Coeff-En:   0.000D+00 0.000D+00 0.100D+01
 Coeff:     -0.266D+00 0.478D+00 0.788D+00
 Gap=     0.117 Goal=   None    Shift=    0.000
 RMSDP=4.52D-03 MaxDP=1.75D-01 DE=-1.62D-01 OVMax= 1.53D-01

 Cycle   4  Pass 1  IDiag  1:
 E= -336.639622532738     Delta-E=       -0.032150927599 Rises=F Damp=F
 DIIS: error= 2.00D-02 at cycle   4 NSaved=   4.
 NSaved= 4 IEnMin= 4 EnMin= -336.639622532738     IErMin= 4 ErrMin= 2.00D-02
 ErrMax= 2.00D-02  0.00D+00 EMaxC= 1.00D-01 BMatC= 5.02D-02 BMatP= 7.77D-02
 IDIUse=3 WtCom= 8.00D-01 WtEn= 2.00D-01
 Coeff-Com: -0.181D+00 0.284D+00 0.456D+00 0.441D+00
 Coeff-En:   0.000D+00 0.000D+00 0.376D+00 0.624D+00
 Coeff:     -0.144D+00 0.227D+00 0.440D+00 0.477D+00
 Gap=     0.145 Goal=   None    Shift=    0.000
 RMSDP=1.72D-03 MaxDP=5.35D-02 DE=-3.22D-02 OVMax= 6.95D-02

 Cycle   5  Pass 1  IDiag  1:
 E= -336.680978329064     Delta-E=       -0.041355796326 Rises=F Damp=F
 DIIS: error= 5.43D-03 at cycle   5 NSaved=   5.
 NSaved= 5 IEnMin= 5 EnMin= -336.680978329064     IErMin= 5 ErrMin= 5.43D-03
 ErrMax= 5.43D-03  0.00D+00 EMaxC= 1.00D-01 BMatC= 3.03D-03 BMatP= 5.02D-02
 IDIUse=3 WtCom= 9.46D-01 WtEn= 5.43D-02
 Coeff-Com: -0.860D-01 0.128D+00 0.194D+00 0.273D+00 0.490D+00
 Coeff-En:   0.000D+00 0.000D+00 0.000D+00 0.000D+00 0.100D+01
 Coeff:     -0.813D-01 0.121D+00 0.183D+00 0.259D+00 0.518D+00
 Gap=     0.149 Goal=   None    Shift=    0.000
 RMSDP=4.00D-04 MaxDP=2.36D-02 DE=-4.14D-02 OVMax= 2.11D-02

 Cycle   6  Pass 1  IDiag  1:
 E= -336.682731362434     Delta-E=       -0.001753033370 Rises=F Damp=F
 DIIS: error= 3.09D-03 at cycle   6 NSaved=   6.
 NSaved= 6 IEnMin= 6 EnMin= -336.682731362434     IErMin= 6 ErrMin= 3.09D-03
 ErrMax= 3.09D-03  0.00D+00 EMaxC= 1.00D-01 BMatC= 6.67D-04 BMatP= 3.03D-03
 IDIUse=3 WtCom= 9.69D-01 WtEn= 3.09D-02
 Coeff-Com: -0.354D-01 0.482D-01 0.177D-01 0.786D-01 0.341D+00 0.550D+00
 Coeff-En:   0.000D+00 0.000D+00 0.000D+00 0.000D+00 0.144D+00 0.856D+00
 Coeff:     -0.343D-01 0.467D-01 0.172D-01 0.761D-01 0.335D+00 0.559D+00
 Gap=     0.148 Goal=   None    Shift=    0.000
 RMSDP=1.93D-04 MaxDP=6.58D-03 DE=-1.75D-03 OVMax= 1.29D-02

 Cycle   7  Pass 1  IDiag  1:
 E= -336.683224437041     Delta-E=       -0.000493074607 Rises=F Damp=F
 DIIS: error= 1.13D-03 at cycle   7 NSaved=   7.
 NSaved= 7 IEnMin= 7 EnMin= -336.683224437041     IErMin= 7 ErrMin= 1.13D-03
 ErrMax= 1.13D-03  0.00D+00 EMaxC= 1.00D-01 BMatC= 1.58D-04 BMatP= 6.67D-04
 IDIUse=3 WtCom= 9.89D-01 WtEn= 1.13D-02
 Coeff-Com: -0.140D-01 0.169D-01-0.266D-01 0.102D-01 0.173D+00 0.430D+00
 Coeff-Com:  0.410D+00
 Coeff-En:   0.000D+00 0.000D+00 0.000D+00 0.000D+00 0.000D+00 0.103D+00
 Coeff-En:   0.897D+00
 Coeff:     -0.139D-01 0.167D-01-0.263D-01 0.101D-01 0.171D+00 0.426D+00
 Coeff:      0.416D+00
 Gap=     0.148 Goal=   None    Shift=    0.000
 RMSDP=9.65D-05 MaxDP=5.53D-03 DE=-4.93D-04 OVMax= 5.08D-03

 Cycle   8  Pass 1  IDiag  1:
 E= -336.683358663767     Delta-E=       -0.000134226727 Rises=F Damp=F
 DIIS: error= 2.02D-04 at cycle   8 NSaved=   8.
 NSaved= 8 IEnMin= 8 EnMin= -336.683358663767     IErMin= 8 ErrMin= 2.02D-04
 ErrMax= 2.02D-04  0.00D+00 EMaxC= 1.00D-01 BMatC= 6.18D-06 BMatP= 1.58D-04
 IDIUse=3 WtCom= 9.98D-01 WtEn= 2.02D-03
 Coeff-Com: -0.417D-02 0.492D-02-0.136D-01-0.425D-02 0.256D-01 0.980D-01
 Coeff-Com:  0.148D+00 0.745D+00
 Coeff-En:   0.000D+00 0.000D+00 0.000D+00 0.000D+00 0.000D+00 0.000D+00
 Coeff-En:   0.000D+00 0.100D+01
 Coeff:     -0.416D-02 0.491D-02-0.136D-01-0.424D-02 0.255D-01 0.978D-01
 Coeff:      0.148D+00 0.746D+00
 Gap=     0.148 Goal=   None    Shift=    0.000
 RMSDP=2.53D-05 MaxDP=1.35D-03 DE=-1.34D-04 OVMax= 8.11D-04

 Cycle   9  Pass 1  IDiag  1:
 E= -336.683363770058     Delta-E=       -0.000005106290 Rises=F Damp=F
 DIIS: error= 1.15D-04 at cycle   9 NSaved=   9.
 NSaved= 9 IEnMin= 9 EnMin= -336.683363770058     IErMin= 9 ErrMin= 1.15D-04
 ErrMax= 1.15D-04  0.00D+00 EMaxC= 1.00D-01 BMatC= 9.54D-07 BMatP= 6.18D-06
 IDIUse=3 WtCom= 9.99D-01 WtEn= 1.15D-03
 Coeff-Com: -0.153D-02 0.186D-02-0.452D-02-0.304D-02-0.523D-02 0.635D-02
 Coeff-Com:  0.286D-01 0.391D+00 0.587D+00
 Coeff-En:   0.000D+00 0.000D+00 0.000D+00 0.000D+00 0.000D+00 0.000D+00
 Coeff-En:   0.000D+00 0.000D+00 0.100D+01
 Coeff:     -0.152D-02 0.186D-02-0.452D-02-0.304D-02-0.523D-02 0.635D-02
 Coeff:      0.286D-01 0.391D+00 0.587D+00
 Gap=     0.147 Goal=   None    Shift=    0.000
 RMSDP=9.43D-06 MaxDP=5.90D-04 DE=-5.11D-06 OVMax= 3.45D-04

 Cycle  10  Pass 1  IDiag  1:
 E= -336.683364573632     Delta-E=       -0.000000803574 Rises=F Damp=F
 DIIS: error= 3.55D-05 at cycle  10 NSaved=  10.
 NSaved=10 IEnMin=10 EnMin= -336.683364573632     IErMin=10 ErrMin= 3.55D-05
 ErrMax= 3.55D-05  0.00D+00 EMaxC= 1.00D-01 BMatC= 1.63D-07 BMatP= 9.54D-07
 IDIUse=1 WtCom= 1.00D+00 WtEn= 0.00D+00
 Coeff-Com: -0.462D-03 0.565D-03-0.118D-02-0.138D-02-0.714D-02-0.105D-01
 Coeff-Com: -0.493D-02 0.138D+00 0.367D+00 0.520D+00
 Coeff:     -0.462D-03 0.565D-03-0.118D-02-0.138D-02-0.714D-02-0.105D-01
 Coeff:     -0.493D-02 0.138D+00 0.367D+00 0.520D+00
 Gap=     0.147 Goal=   None    Shift=    0.000
 RMSDP=3.25D-06 MaxDP=1.72D-04 DE=-8.04D-07 OVMax= 1.18D-04

 Cycle  11  Pass 1  IDiag  1:
 E= -336.683364699228     Delta-E=       -0.000000125597 Rises=F Damp=F
 DIIS: error= 1.56D-05 at cycle  11 NSaved=  11.
 NSaved=11 IEnMin=11 EnMin= -336.683364699228     IErMin=11 ErrMin= 1.56D-05
 ErrMax= 1.56D-05  0.00D+00 EMaxC= 1.00D-01 BMatC= 1.73D-08 BMatP= 1.63D-07
 IDIUse=1 WtCom= 1.00D+00 WtEn= 0.00D+00
 Coeff-Com: -0.159D-03 0.213D-03-0.847D-04-0.232D-03-0.250D-02-0.521D-02
 Coeff-Com: -0.591D-02 0.139D-01 0.101D+00 0.278D+00 0.621D+00
 Coeff:     -0.159D-03 0.213D-03-0.847D-04-0.232D-03-0.250D-02-0.521D-02
 Coeff:     -0.591D-02 0.139D-01 0.101D+00 0.278D+00 0.621D+00
 Gap=     0.147 Goal=   None    Shift=    0.000
 RMSDP=1.18D-06 MaxDP=6.94D-05 DE=-1.26D-07 OVMax= 3.94D-05

 Cycle  12  Pass 1  IDiag  1:
 E= -336.683364714984     Delta-E=       -0.000000015756 Rises=F Damp=F
 DIIS: error= 2.86D-06 at cycle  12 NSaved=  12.
 NSaved=12 IEnMin=12 EnMin= -336.683364714984     IErMin=12 ErrMin= 2.86D-06
 ErrMax= 2.86D-06  0.00D+00 EMaxC= 1.00D-01 BMatC= 8.66D-10 BMatP= 1.73D-08
 IDIUse=1 WtCom= 1.00D+00 WtEn= 0.00D+00
 Coeff-Com: -0.754D-05 0.840D-05 0.108D-05 0.699D-05-0.169D-03-0.766D-03
 Coeff-Com: -0.129D-02-0.651D-02-0.185D-02 0.237D-01 0.104D+00 0.882D+00
 Coeff:     -0.754D-05 0.840D-05 0.108D-05 0.699D-05-0.169D-03-0.766D-03
 Coeff:     -0.129D-02-0.651D-02-0.185D-02 0.237D-01 0.104D+00 0.882D+00
 Gap=     0.147 Goal=   None    Shift=    0.000
 RMSDP=6.60D-07 MaxDP=4.05D-05 DE=-1.58D-08 OVMax= 1.31D-05

 Cycle  13  Pass 1  IDiag  1:
 E= -336.683364715919     Delta-E=       -0.000000000935 Rises=F Damp=F
 DIIS: error= 2.92D-07 at cycle  13 NSaved=  13.
 NSaved=13 IEnMin=13 EnMin= -336.683364715919     IErMin=13 ErrMin= 2.92D-07
 ErrMax= 2.92D-07  0.00D+00 EMaxC= 1.00D-01 BMatC= 1.47D-11 BMatP= 8.66D-10
 IDIUse=1 WtCom= 1.00D+00 WtEn= 0.00D+00
 Coeff-Com:  0.189D-05-0.324D-05 0.464D-05 0.106D-04 0.142D-04-0.137D-03
 Coeff-Com: -0.298D-03-0.296D-02-0.373D-02-0.842D-03 0.164D-01 0.349D+00
 Coeff-Com:  0.643D+00
 Coeff:      0.189D-05-0.324D-05 0.464D-05 0.106D-04 0.142D-04-0.137D-03
 Coeff:     -0.298D-03-0.296D-02-0.373D-02-0.842D-03 0.164D-01 0.349D+00
 Coeff:      0.643D+00
 Gap=     0.147 Goal=   None    Shift=    0.000
 RMSDP=4.73D-08 MaxDP=2.45D-06 DE=-9.35D-10 OVMax= 1.05D-06

 Cycle  14  Pass 1  IDiag  1:
 E= -336.683364715928     Delta-E=       -0.000000000008 Rises=F Damp=F
 DIIS: error= 1.32D-07 at cycle  14 NSaved=  14.
 NSaved=14 IEnMin=14 EnMin= -336.683364715928     IErMin=14 ErrMin= 1.32D-07
 ErrMax= 1.32D-07  0.00D+00 EMaxC= 1.00D-01 BMatC= 2.02D-12 BMatP= 1.47D-11
 IDIUse=1 WtCom= 1.00D+00 WtEn= 0.00D+00
 Coeff-Com:  0.601D-06-0.822D-06 0.201D-05 0.298D-05 0.165D-04 0.163D-04
 Coeff-Com:  0.708D-05-0.362D-03-0.748D-03-0.232D-02-0.274D-02 0.550D-01
 Coeff-Com:  0.255D+00 0.696D+00
 Coeff:      0.601D-06-0.822D-06 0.201D-05 0.298D-05 0.165D-04 0.163D-04
 Coeff:      0.708D-05-0.362D-03-0.748D-03-0.232D-02-0.274D-02 0.550D-01
 Coeff:      0.255D+00 0.696D+00
 Gap=     0.147 Goal=   None    Shift=    0.000
 RMSDP=1.17D-08 MaxDP=4.90D-07 DE=-8.41D-12 OVMax= 4.02D-07

 Cycle  15  Pass 1  IDiag  1:
 E= -336.683364715930     Delta-E=       -0.000000000003 Rises=F Damp=F
 DIIS: error= 1.83D-08 at cycle  15 NSaved=  15.
 NSaved=15 IEnMin=15 EnMin= -336.683364715930     IErMin=15 ErrMin= 1.83D-08
 ErrMax= 1.83D-08  0.00D+00 EMaxC= 1.00D-01 BMatC= 4.39D-14 BMatP= 2.02D-12
 IDIUse=1 WtCom= 1.00D+00 WtEn= 0.00D+00
 Coeff-Com: -0.185D-06 0.312D-06 0.459D-06 0.924D-07 0.971D-07 0.358D-05
 Coeff-Com:  0.128D-04 0.102D-03 0.182D-03-0.119D-03-0.395D-03-0.771D-02
 Coeff-Com: -0.914D-03 0.727D-01 0.936D+00
 Coeff:     -0.185D-06 0.312D-06 0.459D-06 0.924D-07 0.971D-07 0.358D-05
 Coeff:      0.128D-04 0.102D-03 0.182D-03-0.119D-03-0.395D-03-0.771D-02
 Coeff:     -0.914D-03 0.727D-01 0.936D+00
 Gap=     0.147 Goal=   None    Shift=    0.000
 RMSDP=3.61D-09 MaxDP=1.91D-07 DE=-2.61D-12 OVMax= 1.27D-07

 Error on total polarization charges =  0.01478
 SCF Done:  E(RN12SX) =  -336.683364716     A.U. after   15 cycles
            NFock= 15  Conv=0.36D-08     -V/T= 2.0059
 KE= 3.347084513227D+02 PE=-1.382525983925D+03 EE= 4.118732484749D+02
 Leave Link  502 at Wed Jun  9 17:53:54 2021, MaxMem=  3355443200 cpu:       222.0
 (Enter /usr/local/gqt/g09/l601.exe)
 Copying SCF densities to generalized density rwf, IOpCl= 0 IROHF=0.

 **********************************************************************

            Population analysis using the SCF density.

 **********************************************************************

 Orbital symmetries:
       Occupied  (A) (A) (A) (A) (A) (A) (A) (A) (A) (A) (A) (A)
                 (A) (A) (A) (A) (A) (A) (A) (A) (A) (A) (A) (A)
                 (A) (A)
       Virtual   (A) (A) (A) (A) (A) (A) (A) (A) (A) (A) (A) (A)
                 (A) (A) (A) (A) (A) (A) (A) (A) (A) (A) (A) (A)
                 (A) (A) (A) (A) (A) (A) (A) (A) (A) (A) (A) (A)
                 (A) (A) (A) (A) (A) (A) (A) (A) (A) (A) (A) (A)
                 (A) (A) (A) (A) (A) (A) (A) (A) (A) (A) (A) (A)
                 (A) (A) (A) (A) (A) (A) (A) (A) (A) (A) (A) (A)
                 (A) (A) (A) (A) (A) (A) (A) (A) (A) (A) (A) (A)
                 (A) (A) (A) (A) (A) (A) (A) (A) (A) (A) (A) (A)
                 (A) (A) (A) (A) (A) (A) (A) (A) (A) (A) (A) (A)
                 (A) (A) (A) (A) (A) (A) (A) (A) (A) (A) (A) (A)
                 (A) (A) (A) (A) (A) (A) (A) (A) (A) (A) (A) (A)
                 (A) (A) (A) (A) (A) (A) (A) (A) (A) (A) (A) (A)
                 (A) (A) (A) (A) (A) (A) (A) (A) (A) (A) (A) (A)
                 (A) (A) (A) (A) (A) (A) (A) (A)
 The electronic state is 1-A.
 Alpha  occ. eigenvalues --  -14.50764 -14.48943 -14.46387 -14.39854 -10.29115
 Alpha  occ. eigenvalues --  -10.28605 -10.23236  -1.17790  -0.99427  -0.88189
 Alpha  occ. eigenvalues --   -0.81624  -0.72970  -0.68263  -0.61418  -0.54005
 Alpha  occ. eigenvalues --   -0.53827  -0.50844  -0.46862  -0.43120  -0.42326
 Alpha  occ. eigenvalues --   -0.41577  -0.36427  -0.32897  -0.29708  -0.28954
 Alpha  occ. eigenvalues --   -0.22284
 Alpha virt. eigenvalues --   -0.07538  -0.00427   0.00866   0.01399   0.02240
 Alpha virt. eigenvalues --    0.02653   0.04023   0.04504   0.05208   0.05992
 Alpha virt. eigenvalues --    0.06058   0.07070   0.07888   0.08010   0.10515
 Alpha virt. eigenvalues --    0.11998   0.12941   0.13546   0.14353   0.14394
 Alpha virt. eigenvalues --    0.15998   0.17175   0.18179   0.19113   0.19267
 Alpha virt. eigenvalues --    0.20327   0.20527   0.22159   0.22632   0.22770
 Alpha virt. eigenvalues --    0.23547   0.24962   0.25580   0.26423   0.27397
 Alpha virt. eigenvalues --    0.28703   0.31079   0.31682   0.33617   0.38151
 Alpha virt. eigenvalues --    0.40263   0.41503   0.42806   0.44017   0.46071
 Alpha virt. eigenvalues --    0.47979   0.48782   0.52140   0.54303   0.56134
 Alpha virt. eigenvalues --    0.59212   0.59557   0.60423   0.62969   0.64251
 Alpha virt. eigenvalues --    0.67174   0.69254   0.70716   0.77060   0.79068
 Alpha virt. eigenvalues --    0.79686   0.81634   0.81920   0.83850   0.85334
 Alpha virt. eigenvalues --    0.86804   0.88256   0.89556   0.95342   0.98329
 Alpha virt. eigenvalues --    1.01891   1.03426   1.05441   1.08352   1.16677
 Alpha virt. eigenvalues --    1.20372   1.27798   1.28808   1.29522   1.33090
 Alpha virt. eigenvalues --    1.37132   1.40802   1.41271   1.42051   1.46157
 Alpha virt. eigenvalues --    1.48477   1.51297   1.52306   1.53524   1.54465
 Alpha virt. eigenvalues --    1.55528   1.58371   1.62851   1.63367   1.68687
 Alpha virt. eigenvalues --    1.70198   1.76107   1.82693   1.86083   1.91355
 Alpha virt. eigenvalues --    1.93002   1.95379   1.99178   2.02111   2.07338
 Alpha virt. eigenvalues --    2.08445   2.12907   2.13363   2.17762   2.19734
 Alpha virt. eigenvalues --    2.29655   2.31851   2.37430   2.38000   2.39336
 Alpha virt. eigenvalues --    2.42498   2.43627   2.43938   2.48305   2.51214
 Alpha virt. eigenvalues --    2.51728   2.52288   2.59521   2.61028   2.63877
 Alpha virt. eigenvalues --    2.68814   2.70579   2.71504   2.81591   2.82223
 Alpha virt. eigenvalues --    2.92062   2.92782   2.94713   2.98687   3.01478
 Alpha virt. eigenvalues --    3.12015   3.21221   3.28346   3.54084   3.55335
 Alpha virt. eigenvalues --    3.59843   3.62232   3.65954   3.70961   3.74388
 Alpha virt. eigenvalues --    3.74691   3.78793   3.88646   3.90241   3.95098
 Alpha virt. eigenvalues --    4.13346   4.17202   4.50201   4.70415   4.87261
 Alpha virt. eigenvalues --    5.09555   5.61136  23.71954  23.73131  23.84545
 Alpha virt. eigenvalues --   35.11585  35.17270  35.33136  35.50076
          Condensed to atoms (all electrons):
               1          2          3          4          5          6
     1  N    6.662555   0.294508  -0.224149   0.070917   0.029142   0.060731
     2  N    0.294508   6.824345  -0.052943   0.129598  -0.127240  -0.042300
     3  N   -0.224149  -0.052943   7.146056   0.160732   0.184034   0.037128
     4  C    0.070917   0.129598   0.160732   6.343115  -0.020864  -0.258179
     5  N    0.029142  -0.127240   0.184034  -0.020864   6.981565   0.111736
     6  C    0.060731  -0.042300   0.037128  -0.258179   0.111736   5.198379
     7  C    0.046689   0.009378   0.026254  -0.011301  -0.007070   0.003142
     8  H    0.000996   0.001627   0.001972   0.008343  -0.040398   0.391478
     9  H    0.009133  -0.004777   0.000277  -0.002933  -0.029379   0.404678
    10  H    0.009258  -0.004808   0.000289  -0.002956  -0.029458   0.404702
    11  H    0.054574  -0.073260  -0.013327  -0.001951   0.004245   0.000307
    12  H   -0.016514  -0.034953   0.009256   0.000314  -0.001243  -0.000080
    13  H   -0.016389  -0.034930   0.009217   0.000326  -0.001305  -0.000081
               7          8          9         10         11         12
     1  N    0.046689   0.000996   0.009133   0.009258   0.054574  -0.016514
     2  N    0.009378   0.001627  -0.004777  -0.004808  -0.073260  -0.034953
     3  N    0.026254   0.001972   0.000277   0.000289  -0.013327   0.009256
     4  C   -0.011301   0.008343  -0.002933  -0.002956  -0.001951   0.000314
     5  N   -0.007070  -0.040398  -0.029379  -0.029458   0.004245  -0.001243
     6  C    0.003142   0.391478   0.404678   0.404702   0.000307  -0.000080
     7  C    5.060237  -0.000120  -0.000025  -0.000023   0.397194   0.407082
     8  H   -0.000120   0.464476  -0.017730  -0.017723   0.000002  -0.000001
     9  H   -0.000025  -0.017730   0.455447  -0.024891   0.000002  -0.000009
    10  H   -0.000023  -0.017723  -0.024891   0.455355   0.000002   0.000003
    11  H    0.397194   0.000002   0.000002   0.000002   0.456860  -0.019120
    12  H    0.407082  -0.000001  -0.000009   0.000003  -0.019120   0.467963
    13  H    0.407038  -0.000001   0.000003  -0.000009  -0.019082  -0.026915
              13
     1  N   -0.016389
     2  N   -0.034930
     3  N    0.009217
     4  C    0.000326
     5  N   -0.001305
     6  C   -0.000081
     7  C    0.407038
     8  H   -0.000001
     9  H    0.000003
    10  H   -0.000009
    11  H   -0.019082
    12  H   -0.026915
    13  H    0.467906
 Mulliken charges:
               1
     1  N    0.018548
     2  N    0.115756
     3  N   -0.284797
     4  C   -0.415162
     5  N   -0.053764
     6  C   -0.311642
     7  C   -0.338475
     8  H    0.207079
     9  H    0.210204
    10  H    0.210259
    11  H    0.213554
    12  H    0.214218
    13  H    0.214221
 Sum of Mulliken charges =   0.00000
 Mulliken charges with hydrogens summed into heavy atoms:
               1
     1  N    0.018548
     2  N    0.115756
     3  N   -0.284797
     4  C   -0.415162
     5  N   -0.053764
     6  C    0.315900
     7  C    0.303518
 Electronic spatial extent (au):  <R**2>=            733.6739
 Charge=              0.0000 electrons
 Dipole moment (field-independent basis, Debye):
    X=              1.0573    Y=             -6.4635    Z=              0.0007  Tot=              6.5494
 Quadrupole moment (field-independent basis, Debye-Ang):
   XX=            -23.2995   YY=            -53.9130   ZZ=            -40.6727
   XY=              1.6592   XZ=             -0.0048   YZ=              0.0007
 Traceless Quadrupole moment (field-independent basis, Debye-Ang):
   XX=             15.9955   YY=            -14.6179   ZZ=             -1.3776
   XY=              1.6592   XZ=             -0.0048   YZ=              0.0007
 Octapole moment (field-independent basis, Debye-Ang**2):
  XXX=              7.2462  YYY=            -32.2578  ZZZ=              0.0041  XYY=              5.9374
  XXY=            -22.4062  XXZ=              0.0082  XZZ=              2.1225  YZZ=             -5.3496
  YYZ=              0.0044  XYZ=             -0.0033
 Hexadecapole moment (field-independent basis, Debye-Ang**3):
 XXXX=           -553.0357 YYYY=           -275.2569 ZZZZ=            -54.2386 XXXY=              7.0987
 XXXZ=             -0.0078 YYYX=             10.2116 YYYZ=              0.0135 ZZZX=             -0.0089
 ZZZY=              0.0032 XXYY=           -159.2497 XXZZ=           -116.2595 YYZZ=            -49.7837
 XXYZ=              0.0033 YYXZ=             -0.0209 ZZXY=              7.6709
 N-N= 2.992609194112D+02 E-N=-1.382525983734D+03  KE= 3.347084513227D+02
 No NMR shielding tensors so no spin-rotation constants.
 Leave Link  601 at Wed Jun  9 17:53:55 2021, MaxMem=  3355443200 cpu:         1.5
 (Enter /usr/local/gqt/g09/l701.exe)
 Compute integral first derivatives.
 ... and contract with generalized density number  0.
 D1PCM: PCM CHGder 1st derivatives, ID1Alg=3 FixD1E=F DoIter=F DoCFld=F I1PDM=0.
 GePol: Maximum number of non-zero 1st derivatives   =     224
 Leave Link  701 at Wed Jun  9 17:53:55 2021, MaxMem=  3355443200 cpu:         9.2
 (Enter /usr/local/gqt/g09/l702.exe)
 L702 exits ... SP integral derivatives will be done elsewhere.
 Leave Link  702 at Wed Jun  9 17:53:55 2021, MaxMem=  3355443200 cpu:         0.3
 (Enter /usr/local/gqt/g09/l703.exe)
 Compute integral first derivatives, UseDBF=F ICtDFT=           0.
 Integral derivatives from FoFJK, PRISM(SPDF).
 Calling FoFJK, ICntrl=      2127 FMM=F ISym2X=0 I1Cent= 0 IOpClX= 0 NMat=1 NMatS=1 NMatT=0.
 FoFJK:  IHMeth= 1 ICntrl=    2127 DoSepK=T KAlg= 0 I1Cent=   0 FoldK=F
 IRaf=         1 NMat=   1 IRICut=       1 DoRegI=T DoRafI=F ISym2E= 0.
 FoFCou: FMM=F IPFlag=           0 FMFlag=      100000 FMFlg1=         800
         NFxFlg=           0 DoJE=F BraDBF=F KetDBF=F FulRan=T
         wScrn=  0.000000 ICntrl=    2527 IOpCl=  0 I1Cent=           0 NGrid=           0
         NMat0=    1 NMatS0=      1 NMatT0=    0 NMatD0=    1 NMtDS0=    0 NMtDT0=    0
 Symmetry not used in FoFCou.
 Leave Link  703 at Wed Jun  9 17:54:01 2021, MaxMem=  3355443200 cpu:        86.0
 (Enter /usr/local/gqt/g09/l716.exe)
 Dipole        = 4.15968824D-01-2.54295353D+00 2.82858618D-04
 ***** Axes restored to original set *****
 -------------------------------------------------------------------
 Center     Atomic                   Forces (Hartrees/Bohr)
 Number     Number              X              Y              Z
 -------------------------------------------------------------------
      1        7           0.066084685    0.145006719    0.075233944
      2        7          -0.134265361   -0.086210688   -0.040172447
      3        7           0.029492760    0.014911130    0.006862218
      4        6           0.066018158   -0.077743540   -0.045578190
      5        7          -0.045853155   -0.008450781   -0.002279970
      6        6          -0.003254040    0.009990657    0.005668336
      7        6           0.007418004    0.012512563    0.006463494
      8        1           0.013178225    0.016468521    0.008252710
      9        1           0.008101957    0.001051139   -0.016309644
     10        1           0.009383113   -0.012738753    0.009114971
     11        1           0.005329484   -0.015804593   -0.008852352
     12        1          -0.011395433    0.007062774   -0.011299896
     13        1          -0.010238396   -0.006055148    0.012896826
 -------------------------------------------------------------------
 Cartesian Forces:  Max     0.145006719 RMS     0.044281332
 Leave Link  716 at Wed Jun  9 17:54:01 2021, MaxMem=  3355443200 cpu:         0.3
 (Enter /usr/local/gqt/g09/l103.exe)

 GradGradGradGradGradGradGradGradGradGradGradGradGradGradGradGradGradGrad
 Berny optimization.
 FormGI is forming the generalized inverse of G from B-inverse, IUseBI=4.
 Internal  Forces:  Max     0.096701972 RMS     0.029222388
 Search for a local minimum.
 Step number   1 out of a maximum of   65
 All quantities printed in internal units (Hartrees-Bohrs-Radians)
 RMS Force = .29222D-01 SwitMx=.10000D-02 MixMth= 1
 Mixed Optimization -- RFO/linear search
 Second derivative matrix not updated -- first step.
 ITU=  0
     Eigenvalues ---    0.00369   0.01189   0.01206   0.01410   0.01759
     Eigenvalues ---    0.03089   0.07315   0.07319   0.07771   0.07774
     Eigenvalues ---    0.16000   0.16000   0.16000   0.16000   0.16000
     Eigenvalues ---    0.16000   0.25000   0.25000   0.25000   0.25000
     Eigenvalues ---    0.32284   0.32284   0.32284   0.32284   0.32284
     Eigenvalues ---    0.32284   0.32377   0.39825   0.39861   0.46101
     Eigenvalues ---    0.57181   0.66290   0.86379
 RFO step:  Lambda=-9.99784204D-02 EMin= 3.68978880D-03
 Linear search not attempted -- first point.
 Maximum step size (   0.300) exceeded in Quadratic search.
    -- Step size scaled by   0.617
 Iteration  1 RMS(Cart)=  0.06973454 RMS(Int)=  0.00166755
 Iteration  2 RMS(Cart)=  0.00199697 RMS(Int)=  0.00070515
 Iteration  3 RMS(Cart)=  0.00000253 RMS(Int)=  0.00070515
 Iteration  4 RMS(Cart)=  0.00000000 RMS(Int)=  0.00070515
 ITry= 1 IFail=0 DXMaxC= 1.61D-01 DCOld= 1.00D+10 DXMaxT= 3.00D-01 DXLimC= 3.00D+00 Rises=F
 Variable       Old X    -DE/DX   Delta X   Delta X   Delta X     New X
                                 (Linear)    (Quad)   (Total)
    R1        2.61387  -0.07801   0.00000  -0.08689  -0.08570   2.52818
    R2        2.32454   0.06264   0.00000   0.04195   0.04127   2.36581
    R3        2.69437  -0.01535   0.00000  -0.02921  -0.02786   2.66651
    R4        2.71743  -0.00812   0.00000  -0.01004  -0.01004   2.70738
    R5        2.51224  -0.02515   0.00000  -0.02237  -0.02278   2.48946
    R6        2.43782   0.09629   0.00000   0.08122   0.07964   2.51746
    R7        2.83459  -0.02871   0.00000  -0.04181  -0.04181   2.79278
    R8        2.10326  -0.02115   0.00000  -0.03086  -0.03086   2.07240
    R9        2.10326  -0.01809   0.00000  -0.02641  -0.02641   2.07686
   R10        2.10327  -0.01811   0.00000  -0.02643  -0.02643   2.07684
   R11        2.10326  -0.01873   0.00000  -0.02733  -0.02733   2.07593
   R12        2.10326  -0.01746   0.00000  -0.02548  -0.02548   2.07778
   R13        2.10326  -0.01747   0.00000  -0.02550  -0.02550   2.07777
    A1        1.97580  -0.07932   0.00000  -0.13669  -0.13590   1.83989
    A2        1.73505   0.09670   0.00000   0.14660   0.14887   1.88392
    A3        2.27407  -0.05515   0.00000  -0.08529  -0.08643   2.18764
    A4        2.27407  -0.04155   0.00000  -0.06131  -0.06244   2.21162
    A5        1.89345  -0.01443   0.00000  -0.04733  -0.04610   1.84735
    A6        1.88466  -0.03422   0.00000  -0.03997  -0.04253   1.84213
    A7        1.93582   0.03127   0.00000   0.07740   0.07567   2.01149
    A8        2.17368  -0.02944   0.00000  -0.06303  -0.06217   2.11152
    A9        2.17368  -0.00183   0.00000  -0.01436  -0.01350   2.16018
   A10        1.91114  -0.01149   0.00000  -0.02787  -0.02795   1.88318
   A11        1.91012  -0.00084   0.00000  -0.00169  -0.00174   1.90838
   A12        1.91047  -0.00091   0.00000  -0.00187  -0.00192   1.90855
   A13        1.91012   0.00557   0.00000   0.01266   0.01258   1.92270
   A14        1.91047   0.00557   0.00000   0.01262   0.01253   1.92300
   A15        1.91148   0.00209   0.00000   0.00613   0.00613   1.91761
   A16        1.91114  -0.00299   0.00000  -0.00724  -0.00726   1.90388
   A17        1.91012  -0.00143   0.00000  -0.00331  -0.00332   1.90680
   A18        1.91047  -0.00147   0.00000  -0.00344  -0.00345   1.90702
   A19        1.91012   0.00207   0.00000   0.00480   0.00479   1.91491
   A20        1.91047   0.00206   0.00000   0.00475   0.00473   1.91520
   A21        1.91148   0.00176   0.00000   0.00444   0.00443   1.91591
    D1        0.00022  -0.00002   0.00000  -0.00009  -0.00009   0.00013
    D2       -3.14137  -0.00001   0.00000  -0.00004  -0.00003  -3.14140
    D3        0.00072  -0.00004   0.00000  -0.00019  -0.00019   0.00053
    D4       -3.14087  -0.00003   0.00000  -0.00011  -0.00011  -3.14098
    D5       -0.00105   0.00004   0.00000   0.00033   0.00034  -0.00071
    D6        3.14054   0.00003   0.00000   0.00027   0.00027   3.14082
    D7        0.00000  -0.00002   0.00000  -0.00009  -0.00009  -0.00008
    D8        2.09376  -0.00018   0.00000  -0.00066  -0.00065   2.09311
    D9       -2.09440   0.00019   0.00000   0.00064   0.00064  -2.09377
   D10       -3.14159  -0.00001   0.00000  -0.00001  -0.00001   3.14158
   D11       -1.04783  -0.00018   0.00000  -0.00059  -0.00058  -1.04841
   D12        1.04719   0.00020   0.00000   0.00071   0.00071   1.04790
   D13        0.00153  -0.00015   0.00000  -0.00059  -0.00056   0.00097
   D14       -0.00141   0.00008   0.00000   0.00041   0.00042  -0.00100
   D15        3.14018   0.00007   0.00000   0.00033   0.00033   3.14051
   D16        3.14159  -0.00002   0.00000  -0.00010  -0.00010   3.14149
   D17       -1.04783  -0.00075   0.00000  -0.00267  -0.00264  -1.05047
   D18        1.04719   0.00075   0.00000   0.00265   0.00262   1.04981
   D19        0.00000  -0.00001   0.00000  -0.00001  -0.00001  -0.00001
   D20        2.09376  -0.00073   0.00000  -0.00259  -0.00255   2.09121
   D21       -2.09440   0.00076   0.00000   0.00274   0.00271  -2.09169
         Item               Value     Threshold  Converged?
 Maximum Force            0.096702     0.000450     NO 
 RMS     Force            0.029222     0.000300     NO 
 Maximum Displacement     0.161056     0.001800     NO 
 RMS     Displacement     0.070921     0.001200     NO 
 Predicted change in Energy=-4.723262D-02
 Lowest energy point so far.  Saving SCF results.
 GradGradGradGradGradGradGradGradGradGradGradGradGradGradGradGradGradGrad

 Leave Link  103 at Wed Jun  9 17:54:01 2021, MaxMem=  3355443200 cpu:         0.3
 (Enter /usr/local/gqt/g09/l202.exe)
                          Input orientation:                          
 ---------------------------------------------------------------------
 Center     Atomic      Atomic             Coordinates (Angstroms)
 Number     Number       Type             X           Y           Z
 ---------------------------------------------------------------------
      1          7           0       -1.215953    0.609297    0.342092
      2          7           0        0.094889    0.406618    0.167543
      3          7           0        0.258755   -0.822167   -0.506485
      4          6           0       -0.956966   -1.291348   -0.699713
      5          7           0       -1.777617   -0.385852   -0.169323
      6          6           0       -3.249984   -0.513314   -0.166540
      7          6           0        1.135005    1.293418    0.596880
      8          1           0       -3.507630   -1.455868   -0.664425
      9          1           0       -3.612692   -0.521406    0.870877
     10          1           0       -3.689981    0.334880   -0.709500
     11          1           0        0.683233    2.164289    1.091111
     12          1           0        1.792617    0.766031    1.302813
     13          1           0        1.715183    1.622218   -0.277304
 ---------------------------------------------------------------------
                    Distance matrix (angstroms):
                    1          2          3          4          5
     1  N    0.000000
     2  N    1.337853   0.000000
     3  N    2.223497   1.411057   0.000000
     4  C    2.182861   2.177526   1.317363   0.000000
     5  N    1.251932   2.061011   2.109706   1.332180   0.000000
     6  C    2.378286   3.485120   3.538673   2.479424   1.477877
     7  C    2.461695   1.432685   2.541836   3.569105   3.448244
     8  H    3.244960   4.139948   3.822588   2.556208   2.093563
     9  H    2.702307   3.886138   4.120157   3.180008   2.113740
    10  H    2.702215   3.885819   4.119769   3.180265   2.113855
    11  H    2.566308   2.070877   3.413417   4.223592   3.761342
    12  H    3.162126   2.073715   2.854587   3.975314   4.029961
    13  H    3.162471   2.073867   2.854597   3.975887   4.030342
                    6          7          8          9         10
     6  C    0.000000
     7  C    4.803667   0.000000
     8  H    1.096667   5.541076   0.000000
     9  H    1.099026   5.090117   1.800392   0.000000
    10  H    1.099016   5.089786   1.800573   1.799109   0.000000
    11  H    4.921528   1.098535   5.809541   5.071137   5.070891
    12  H    5.405881   1.099514   6.074494   5.573278   5.856123
    13  H    5.406075   1.099506   6.074722   5.856595   5.573135
                   11         12         13
    11  H    0.000000
    12  H    1.797408   0.000000
    13  H    1.797588   1.798839   0.000000
 Stoichiometry    C3H6N4
 Framework group  C1[X(C3H6N4)]
 Deg. of freedom    33
 Full point group                 C1      NOp   1
 RotChk:  IX=0 Diff= 7.07D-03
 Largest Abelian subgroup         C1      NOp   1
 Largest concise Abelian subgroup C1      NOp   1
                         Standard orientation:                         
 ---------------------------------------------------------------------
 Center     Atomic      Atomic             Coordinates (Angstroms)
 Number     Number       Type             X           Y           Z
 ---------------------------------------------------------------------
      1          7           0       -0.052527   -0.825166   -0.000197
      2          7           0        1.044450   -0.059338    0.000107
      3          7           0        0.632389    1.290213    0.000463
      4          6           0       -0.684716    1.264145   -0.000553
      5          7           0       -1.016293   -0.026111   -0.000200
      6          6           0       -2.410627   -0.515960    0.000273
      7          6           0        2.392963   -0.543174    0.000002
      8          1           0       -3.074517    0.356926    0.000284
      9          1           0       -2.583389   -1.123280   -0.899268
     10          1           0       -2.582939   -1.123349    0.899841
     11          1           0        2.380436   -1.641638   -0.000281
     12          1           0        2.909118   -0.177872   -0.899480
     13          1           0        2.909439   -0.178036    0.899358
 ---------------------------------------------------------------------
 Rotational constants (GHZ):      7.5007936      2.2120947      1.7468111
 Leave Link  202 at Wed Jun  9 17:54:01 2021, MaxMem=  3355443200 cpu:         0.0
 (Enter /usr/local/gqt/g09/l301.exe)
 Standard basis: 6-311+G(d,p) (5D, 7F)
 Ernie: Thresh=  0.10000D-02 Tol=  0.10000D-05 Strict=F.
 There are   197 symmetry adapted cartesian basis functions of A   symmetry.
 There are   190 symmetry adapted basis functions of A   symmetry.
   190 basis functions,   300 primitive gaussians,   197 cartesian basis functions
    26 alpha electrons       26 beta electrons
       nuclear repulsion energy       302.2589072753 Hartrees.
 IExCor= 5547 DFT=T Ex+Corr=N12SX ExCW=0 ScaHFX=  0.250000
 ScaDFX=  1.000000  1.000000  1.000000  1.000000 ScalE2=  1.000000  1.000000
 IRadAn=      0 IRanWt=     -1 IRanGd=            0 ICorTp=0 IEmpDi=  4
  HFx wShort=  0.110000 wLong=  0.000000 cFull=  0.000000 cShort=  1.000000 cLong=  0.000000
  DFx wShort=  0.110000 wLong=  0.000000 cFull=  0.000000 cShort=  1.000000 cLong=  0.000000
 NAtoms=   13 NActive=   13 NUniq=   13 SFac= 1.00D+00 NAtFMM=   60 NAOKFM=F Big=F
 Integral buffers will be    131072 words long.
 Raffenetti 2 integral format.
 Two-electron integral symmetry is turned on.
 ------------------------------------------------------------------------------
 Polarizable Continuum Model (PCM)
 =================================
 Model                : PCM (using non-symmetric T matrix).
 Atomic radii         : UFF (Universal Force Field).
 Polarization charges : Total charges.
 Charge compensation  : None.
 Solution method      : On-the-fly selection.
 Cavity type          : Scaled VdW (van der Waals Surface) (Alpha=1.100).
 Cavity algorithm     : GePol (No added spheres)
                        Default sphere list used, NSphG=   13.
                        Lebedev-Laikov grids with approx.  5.0 points / Ang**2.
                        Smoothing algorithm: Karplus/York (Gamma=1.0000).
                        Polarization charges: spherical gaussians, with
                                              point-specific exponents (IZeta= 3).
                        Self-potential: point-specific (ISelfS= 7).
                        Self-field    : sphere-specific E.n sum rule (ISelfD= 2).
 1st derivatives      : Analytical E(r).r(x)/FMM algorithm (CHGder, D1EAlg=3).
                        Cavity 1st derivative terms included.
 Solvent              : Water, Eps=  78.355300 Eps(inf)=   1.777849
 ------------------------------------------------------------------------------
 Spheres list:
 ISph  on   Nord     Re0    Alpha      Xe            Ye            Ze
    1   N      1    1.8300  1.100     -0.052527     -0.825166     -0.000197
    2   N      2    1.8300  1.100      1.044450     -0.059338      0.000107
    3   N      3    1.8300  1.100      0.632389      1.290213      0.000463
    4   C      4    1.9255  1.100     -0.684716      1.264145     -0.000553
    5   N      5    1.8300  1.100     -1.016293     -0.026111     -0.000200
    6   C      6    1.9255  1.100     -2.410627     -0.515960      0.000273
    7   C      7    1.9255  1.100      2.392963     -0.543174      0.000002
    8   H      8    1.4430  1.100     -3.074517      0.356926      0.000284
    9   H      9    1.4430  1.100     -2.583389     -1.123280     -0.899268
   10   H     10    1.4430  1.100     -2.582939     -1.123349      0.899841
   11   H     11    1.4430  1.100      2.380436     -1.641638     -0.000281
   12   H     12    1.4430  1.100      2.909118     -0.177872     -0.899480
   13   H     13    1.4430  1.100      2.909439     -0.178036      0.899358
 ------------------------------------------------------------------------------
 GePol: Number of generator spheres                  =      13
 GePol: Total number of spheres                      =      13
 GePol: Number of exposed spheres                    =      13 (100.00%)
 GePol: Number of points                             =    1180
 GePol: Average weight of points                     =       0.14
 GePol: Minimum weight of points                     =   0.41D-10
 GePol: Maximum weight of points                     =    0.20577
 GePol: Number of points with low weight             =      48
 GePol: Fraction of low-weight points (<1% of avg)   =       4.07%
 GePol: Cavity surface area                          =    159.741 Ang**2
 GePol: Cavity volume                                =    148.150 Ang**3
 Leave Link  301 at Wed Jun  9 17:54:01 2021, MaxMem=  3355443200 cpu:         0.6
 (Enter /usr/local/gqt/g09/l302.exe)
 NPDir=0 NMtPBC=     1 NCelOv=     1 NCel=       1 NClECP=     1 NCelD=      1
         NCelK=      1 NCelE2=     1 NClLst=     1 CellRange=     0.0.
 One-electron integrals computed using PRISM.
 NBasis=   190 RedAO= T EigKep=  2.70D-05  NBF=   190
 NBsUse=   190 1.00D-06 EigRej= -1.00D+00 NBFU=   190
 Precomputing XC quadrature grid using
 IXCGrd= 4 IRadAn=           0 IRanWt=          -1 IRanGd=           0 AccXCQ= 0.00D+00.
 Generated NRdTot=       0 NPtTot=           0 NUsed=           0 NTot=          32
 NSgBfM=   197   197   197   197   197 MxSgAt=    13 MxSgA2=    13.
 Leave Link  302 at Wed Jun  9 17:54:01 2021, MaxMem=  3355443200 cpu:         2.4
 (Enter /usr/local/gqt/g09/l303.exe)
 DipDrv:  MaxL=1.
 Leave Link  303 at Wed Jun  9 17:54:01 2021, MaxMem=  3355443200 cpu:         0.4
 (Enter /usr/local/gqt/g09/l401.exe)
 Initial guess from the checkpoint file:  "NHC31-.chk"
 B after Tr=     0.000000    0.000000    0.000000
         Rot=    0.999996    0.000002   -0.000001    0.002803 Ang=   0.32 deg.
 Guess basis will be translated and rotated to current coordinates.
 JPrj=2 DoOrth=T DoCkMO=T.
 Generating alternative initial guess.
 ExpMin= 4.38D-02 ExpMax= 6.29D+03 ExpMxC= 9.49D+02 IAcc=2 IRadAn=         4 AccDes= 0.00D+00
 Harris functional with IExCor= 5547 and IRadAn=       4 diagonalized for initial guess.
 HarFok:  IExCor= 5547 AccDes= 0.00D+00 IRadAn=         4 IDoV= 1 UseB2=F ITyADJ=14
 ICtDFT=  3500011 ScaDFX=  1.000000  1.000000  1.000000  1.000000
 FoFCou: FMM=F IPFlag=           0 FMFlag=      100000 FMFlg1=           0
         NFxFlg=           0 DoJE=T BraDBF=F KetDBF=T FulRan=T
         wScrn=  0.000000 ICntrl=     500 IOpCl=  0 I1Cent=   200000004 NGrid=           0
         NMat0=    1 NMatS0=      1 NMatT0=    0 NMatD0=    1 NMtDS0=    0 NMtDT0=    0
 Petite list used in FoFCou.
 Harris En= -326.699336405570    
 Leave Link  401 at Wed Jun  9 17:54:01 2021, MaxMem=  3355443200 cpu:         6.7
 (Enter /usr/local/gqt/g09/l502.exe)
 Closed shell SCF:
 Using DIIS extrapolation, IDIIS=  1040.
 Integral symmetry usage will be decided dynamically.
 Keep R1 ints in memory in canonical form, NReq=334029009.
 IVT=      139593 IEndB=      139593 NGot=  3355443200 MDV=  3026044438
 LenX=  3026044438 LenY=  3026005188
 Requested convergence on RMS density matrix=1.00D-08 within 128 cycles.
 Requested convergence on MAX density matrix=1.00D-06.
 Requested convergence on             energy=1.00D-06.
 No special actions if energy rises.
 FoFCou: FMM=F IPFlag=           0 FMFlag=           0 FMFlg1=           0
         NFxFlg=           0 DoJE=F BraDBF=F KetDBF=F FulRan=T
         wScrn=  0.000000 ICntrl=     600 IOpCl=  0 I1Cent=           0 NGrid=           0
         NMat0=    1 NMatS0=  18145 NMatT0=    0 NMatD0=    1 NMtDS0=    0 NMtDT0=    0
 Symmetry not used in FoFCou.

 Cycle   1  Pass 1  IDiag  1:
 Inv3:  Mode=1 IEnd=     4177200.
 Iteration    1 A*A^-1 deviation from unit magnitude is 4.44D-15 for   1154.
 Iteration    1 A*A^-1 deviation from orthogonality  is 2.38D-15 for   1051    608.
 Iteration    1 A^-1*A deviation from unit magnitude is 4.88D-15 for   1154.
 Iteration    1 A^-1*A deviation from orthogonality  is 2.91D-15 for   1023    956.
 E= -336.716767496197    
 DIIS: error= 4.93D-03 at cycle   1 NSaved=   1.
 NSaved= 1 IEnMin= 1 EnMin= -336.716767496197     IErMin= 1 ErrMin= 4.93D-03
 ErrMax= 4.93D-03  0.00D+00 EMaxC= 1.00D-01 BMatC= 8.26D-03 BMatP= 8.26D-03
 IDIUse=3 WtCom= 9.51D-01 WtEn= 4.93D-02
 Coeff-Com:  0.100D+01
 Coeff-En:   0.100D+01
 Coeff:      0.100D+01
 Gap=     0.445 Goal=   None    Shift=    0.000
 GapD=    0.445 DampG=2.000 DampE=1.000 DampFc=2.0000 IDamp=-1.
 RMSDP=1.45D-03 MaxDP=5.25D-02              OVMax= 2.62D-02

 Cycle   2  Pass 1  IDiag  1:
 E= -336.724157564437     Delta-E=       -0.007390068240 Rises=F Damp=F
 DIIS: error= 3.16D-03 at cycle   2 NSaved=   2.
 NSaved= 2 IEnMin= 2 EnMin= -336.724157564437     IErMin= 2 ErrMin= 3.16D-03
 ErrMax= 3.16D-03  0.00D+00 EMaxC= 1.00D-01 BMatC= 1.24D-03 BMatP= 8.26D-03
 IDIUse=3 WtCom= 9.68D-01 WtEn= 3.16D-02
 Coeff-Com:  0.175D+00 0.825D+00
 Coeff-En:   0.000D+00 0.100D+01
 Coeff:      0.169D+00 0.831D+00
 Gap=     0.164 Goal=   None    Shift=    0.000
 RMSDP=4.23D-04 MaxDP=9.79D-03 DE=-7.39D-03 OVMax= 2.92D-02

 Cycle   3  Pass 1  IDiag  1:
 E= -336.722695924583     Delta-E=        0.001461639854 Rises=F Damp=F
 DIIS: error= 5.40D-03 at cycle   3 NSaved=   3.
 NSaved= 3 IEnMin= 2 EnMin= -336.724157564437     IErMin= 2 ErrMin= 3.16D-03
 ErrMax= 5.40D-03  0.00D+00 EMaxC= 1.00D-01 BMatC= 2.92D-03 BMatP= 1.24D-03
 IDIUse=3 WtCom= 1.20D-01 WtEn= 8.80D-01
 Coeff-Com: -0.355D-02 0.610D+00 0.394D+00
 Coeff-En:   0.000D+00 0.663D+00 0.337D+00
 Coeff:     -0.425D-03 0.656D+00 0.344D+00
 Gap=     0.161 Goal=   None    Shift=    0.000
 RMSDP=2.31D-04 MaxDP=4.36D-03 DE= 1.46D-03 OVMax= 1.85D-02

 Cycle   4  Pass 1  IDiag  1:
 E= -336.725154436750     Delta-E=       -0.002458512167 Rises=F Damp=F
 DIIS: error= 7.37D-04 at cycle   4 NSaved=   4.
 NSaved= 4 IEnMin= 4 EnMin= -336.725154436750     IErMin= 4 ErrMin= 7.37D-04
 ErrMax= 7.37D-04  0.00D+00 EMaxC= 1.00D-01 BMatC= 8.69D-05 BMatP= 1.24D-03
 IDIUse=3 WtCom= 9.93D-01 WtEn= 7.37D-03
 Coeff-Com: -0.929D-02 0.334D+00 0.165D+00 0.510D+00
 Coeff-En:   0.000D+00 0.000D+00 0.000D+00 0.100D+01
 Coeff:     -0.922D-02 0.331D+00 0.164D+00 0.514D+00
 Gap=     0.159 Goal=   None    Shift=    0.000
 RMSDP=5.67D-05 MaxDP=2.76D-03 DE=-2.46D-03 OVMax= 2.16D-03

 Cycle   5  Pass 1  IDiag  1:
 E= -336.725220830982     Delta-E=       -0.000066394232 Rises=F Damp=F
 DIIS: error= 2.71D-04 at cycle   5 NSaved=   5.
 NSaved= 5 IEnMin= 5 EnMin= -336.725220830982     IErMin= 5 ErrMin= 2.71D-04
 ErrMax= 2.71D-04  0.00D+00 EMaxC= 1.00D-01 BMatC= 6.81D-06 BMatP= 8.69D-05
 IDIUse=3 WtCom= 9.97D-01 WtEn= 2.71D-03
 Coeff-Com: -0.460D-02 0.104D+00 0.423D-01 0.283D+00 0.575D+00
 Coeff-En:   0.000D+00 0.000D+00 0.000D+00 0.000D+00 0.100D+01
 Coeff:     -0.459D-02 0.104D+00 0.422D-01 0.282D+00 0.576D+00
 Gap=     0.160 Goal=   None    Shift=    0.000
 RMSDP=2.17D-05 MaxDP=1.10D-03 DE=-6.64D-05 OVMax= 8.19D-04

 Cycle   6  Pass 1  IDiag  1:
 E= -336.725225518753     Delta-E=       -0.000004687770 Rises=F Damp=F
 DIIS: error= 9.36D-05 at cycle   6 NSaved=   6.
 NSaved= 6 IEnMin= 6 EnMin= -336.725225518753     IErMin= 6 ErrMin= 9.36D-05
 ErrMax= 9.36D-05  0.00D+00 EMaxC= 1.00D-01 BMatC= 8.91D-07 BMatP= 6.81D-06
 IDIUse=1 WtCom= 1.00D+00 WtEn= 0.00D+00
 Coeff-Com: -0.151D-02 0.190D-01 0.378D-02 0.987D-01 0.324D+00 0.556D+00
 Coeff:     -0.151D-02 0.190D-01 0.378D-02 0.987D-01 0.324D+00 0.556D+00
 Gap=     0.160 Goal=   None    Shift=    0.000
 RMSDP=5.19D-06 MaxDP=2.28D-04 DE=-4.69D-06 OVMax= 2.61D-04

 Cycle   7  Pass 1  IDiag  1:
 E= -336.725226250314     Delta-E=       -0.000000731561 Rises=F Damp=F
 DIIS: error= 3.27D-05 at cycle   7 NSaved=   7.
 NSaved= 7 IEnMin= 7 EnMin= -336.725226250314     IErMin= 7 ErrMin= 3.27D-05
 ErrMax= 3.27D-05  0.00D+00 EMaxC= 1.00D-01 BMatC= 6.63D-08 BMatP= 8.91D-07
 IDIUse=1 WtCom= 1.00D+00 WtEn= 0.00D+00
 Coeff-Com: -0.342D-03 0.938D-03-0.213D-02 0.270D-01 0.114D+00 0.278D+00
 Coeff-Com:  0.583D+00
 Coeff:     -0.342D-03 0.938D-03-0.213D-02 0.270D-01 0.114D+00 0.278D+00
 Coeff:      0.583D+00
 Gap=     0.160 Goal=   None    Shift=    0.000
 RMSDP=2.36D-06 MaxDP=1.37D-04 DE=-7.32D-07 OVMax= 1.51D-04

 Cycle   8  Pass 1  IDiag  1:
 E= -336.725226289418     Delta-E=       -0.000000039104 Rises=F Damp=F
 DIIS: error= 1.33D-05 at cycle   8 NSaved=   8.
 NSaved= 8 IEnMin= 8 EnMin= -336.725226289418     IErMin= 8 ErrMin= 1.33D-05
 ErrMax= 1.33D-05  0.00D+00 EMaxC= 1.00D-01 BMatC= 2.34D-08 BMatP= 6.63D-08
 IDIUse=1 WtCom= 1.00D+00 WtEn= 0.00D+00
 Coeff-Com:  0.229D-04-0.315D-02-0.255D-02 0.114D-02 0.209D-01 0.929D-01
 Coeff-Com:  0.405D+00 0.485D+00
 Coeff:      0.229D-04-0.315D-02-0.255D-02 0.114D-02 0.209D-01 0.929D-01
 Coeff:      0.405D+00 0.485D+00
 Gap=     0.160 Goal=   None    Shift=    0.000
 RMSDP=8.01D-07 MaxDP=1.92D-05 DE=-3.91D-08 OVMax= 5.56D-05

 Cycle   9  Pass 1  IDiag  1:
 E= -336.725226308333     Delta-E=       -0.000000018915 Rises=F Damp=F
 DIIS: error= 2.49D-06 at cycle   9 NSaved=   9.
 NSaved= 9 IEnMin= 9 EnMin= -336.725226308333     IErMin= 9 ErrMin= 2.49D-06
 ErrMax= 2.49D-06  0.00D+00 EMaxC= 1.00D-01 BMatC= 6.51D-10 BMatP= 2.34D-08
 IDIUse=1 WtCom= 1.00D+00 WtEn= 0.00D+00
 Coeff-Com:  0.306D-04-0.136D-02-0.104D-02-0.997D-03 0.151D-02 0.216D-01
 Coeff-Com:  0.149D+00 0.227D+00 0.604D+00
 Coeff:      0.306D-04-0.136D-02-0.104D-02-0.997D-03 0.151D-02 0.216D-01
 Coeff:      0.149D+00 0.227D+00 0.604D+00
 Gap=     0.160 Goal=   None    Shift=    0.000
 RMSDP=3.20D-07 MaxDP=1.15D-05 DE=-1.89D-08 OVMax= 8.84D-06

 Cycle  10  Pass 1  IDiag  1:
 E= -336.725226308964     Delta-E=       -0.000000000631 Rises=F Damp=F
 DIIS: error= 5.15D-07 at cycle  10 NSaved=  10.
 NSaved=10 IEnMin=10 EnMin= -336.725226308964     IErMin=10 ErrMin= 5.15D-07
 ErrMax= 5.15D-07  0.00D+00 EMaxC= 1.00D-01 BMatC= 3.56D-11 BMatP= 6.51D-10
 IDIUse=1 WtCom= 1.00D+00 WtEn= 0.00D+00
 Coeff-Com:  0.931D-05-0.194D-03-0.173D-03-0.391D-03-0.145D-02-0.120D-02
 Coeff-Com:  0.173D-01 0.323D-01 0.212D+00 0.742D+00
 Coeff:      0.931D-05-0.194D-03-0.173D-03-0.391D-03-0.145D-02-0.120D-02
 Coeff:      0.173D-01 0.323D-01 0.212D+00 0.742D+00
 Gap=     0.160 Goal=   None    Shift=    0.000
 RMSDP=6.64D-08 MaxDP=2.19D-06 DE=-6.31D-10 OVMax= 1.72D-06

 Cycle  11  Pass 1  IDiag  1:
 E= -336.725226309002     Delta-E=       -0.000000000039 Rises=F Damp=F
 DIIS: error= 6.35D-08 at cycle  11 NSaved=  11.
 NSaved=11 IEnMin=11 EnMin= -336.725226309002     IErMin=11 ErrMin= 6.35D-08
 ErrMax= 6.35D-08  0.00D+00 EMaxC= 1.00D-01 BMatC= 1.02D-12 BMatP= 3.56D-11
 IDIUse=1 WtCom= 1.00D+00 WtEn= 0.00D+00
 Coeff-Com:  0.352D-06 0.315D-04 0.136D-04-0.279D-05-0.384D-03-0.121D-02
 Coeff-Com: -0.474D-02-0.828D-02 0.106D-01 0.126D+00 0.878D+00
 Coeff:      0.352D-06 0.315D-04 0.136D-04-0.279D-05-0.384D-03-0.121D-02
 Coeff:     -0.474D-02-0.828D-02 0.106D-01 0.126D+00 0.878D+00
 Gap=     0.160 Goal=   None    Shift=    0.000
 RMSDP=2.11D-08 MaxDP=1.20D-06 DE=-3.87D-11 OVMax= 3.64D-07

 Cycle  12  Pass 1  IDiag  1:
 E= -336.725226309001     Delta-E=        0.000000000002 Rises=F Damp=F
 DIIS: error= 1.96D-08 at cycle  12 NSaved=  12.
 NSaved=12 IEnMin=11 EnMin= -336.725226309002     IErMin=12 ErrMin= 1.96D-08
 ErrMax= 1.96D-08  0.00D+00 EMaxC= 1.00D-01 BMatC= 8.17D-14 BMatP= 1.02D-12
 IDIUse=1 WtCom= 1.00D+00 WtEn= 0.00D+00
 Coeff-Com: -0.174D-06 0.163D-04 0.882D-05 0.143D-04-0.901D-04-0.350D-03
 Coeff-Com: -0.206D-02-0.408D-02-0.236D-02 0.176D-01 0.297D+00 0.694D+00
 Coeff:     -0.174D-06 0.163D-04 0.882D-05 0.143D-04-0.901D-04-0.350D-03
 Coeff:     -0.206D-02-0.408D-02-0.236D-02 0.176D-01 0.297D+00 0.694D+00
 Gap=     0.160 Goal=   None    Shift=    0.000
 RMSDP=2.53D-09 MaxDP=6.85D-08 DE= 1.59D-12 OVMax= 1.30D-07

 Error on total polarization charges =  0.01408
 SCF Done:  E(RN12SX) =  -336.725226309     A.U. after   12 cycles
            NFock= 12  Conv=0.25D-08     -V/T= 2.0055
 KE= 3.348891612795D+02 PE=-1.388627294768D+03 EE= 4.147539999045D+02
 Leave Link  502 at Wed Jun  9 17:54:16 2021, MaxMem=  3355443200 cpu:       196.2
 (Enter /usr/local/gqt/g09/l701.exe)
 Compute integral first derivatives.
 ... and contract with generalized density number  0.
 D1PCM: PCM CHGder 1st derivatives, ID1Alg=3 FixD1E=F DoIter=F DoCFld=F I1PDM=0.
 GePol: Maximum number of non-zero 1st derivatives   =     228
 Leave Link  701 at Wed Jun  9 17:54:16 2021, MaxMem=  3355443200 cpu:         9.3
 (Enter /usr/local/gqt/g09/l702.exe)
 L702 exits ... SP integral derivatives will be done elsewhere.
 Leave Link  702 at Wed Jun  9 17:54:16 2021, MaxMem=  3355443200 cpu:         0.3
 (Enter /usr/local/gqt/g09/l703.exe)
 Compute integral first derivatives, UseDBF=F ICtDFT=           0.
 Integral derivatives from FoFJK, PRISM(SPDF).
 Calling FoFJK, ICntrl=      2127 FMM=F ISym2X=0 I1Cent= 0 IOpClX= 0 NMat=1 NMatS=1 NMatT=0.
 FoFJK:  IHMeth= 1 ICntrl=    2127 DoSepK=T KAlg= 0 I1Cent=   0 FoldK=F
 IRaf=         1 NMat=   1 IRICut=       1 DoRegI=T DoRafI=F ISym2E= 0.
 FoFCou: FMM=F IPFlag=           0 FMFlag=      100000 FMFlg1=         800
         NFxFlg=           0 DoJE=F BraDBF=F KetDBF=F FulRan=T
         wScrn=  0.000000 ICntrl=    2527 IOpCl=  0 I1Cent=           0 NGrid=           0
         NMat0=    1 NMatS0=      1 NMatT0=    0 NMatD0=    1 NMtDS0=    0 NMtDT0=    0
 Symmetry not used in FoFCou.
 Leave Link  703 at Wed Jun  9 17:54:22 2021, MaxMem=  3355443200 cpu:        88.1
 (Enter /usr/local/gqt/g09/l716.exe)
 Dipole        = 4.57648982D-01-2.43956978D+00 2.38781052D-04
 ***** Axes restored to original set *****
 -------------------------------------------------------------------
 Center     Atomic                   Forces (Hartrees/Bohr)
 Number     Number              X              Y              Z
 -------------------------------------------------------------------
      1        7           0.067808866    0.056162636    0.027037475
      2        7          -0.064489825   -0.041142558   -0.019169088
      3        7           0.013630050    0.034788653    0.018330379
      4        6           0.022764899   -0.037203123   -0.021426657
      5        7          -0.055124858   -0.020892638   -0.008559084
      6        6           0.001817146    0.005517699    0.002975893
      7        6           0.008072647    0.008113121    0.004034788
      8        1           0.005369997    0.008809768    0.004491892
      9        1           0.003296280    0.000246766   -0.008780326
     10        1           0.003974466   -0.007078974    0.004712530
     11        1           0.003005567   -0.008667405   -0.004863413
     12        1          -0.005385993    0.004349338   -0.006177797
     13        1          -0.004739240   -0.003003283    0.007393409
 -------------------------------------------------------------------
 Cartesian Forces:  Max     0.067808866 RMS     0.024346350
 Leave Link  716 at Wed Jun  9 17:54:22 2021, MaxMem=  3355443200 cpu:         0.3
 (Enter /usr/local/gqt/g09/l103.exe)

 GradGradGradGradGradGradGradGradGradGradGradGradGradGradGradGradGradGrad
 Berny optimization.
 Using GEDIIS/GDIIS optimizer.
 FormGI is forming the generalized inverse of G from B-inverse, IUseBI=4.
 Internal  Forces:  Max     0.047910740 RMS     0.013538369
 Search for a local minimum.
 Step number   2 out of a maximum of   65
 All quantities printed in internal units (Hartrees-Bohrs-Radians)
 RMS Force = .13538D-01 SwitMx=.10000D-02 MixMth= 1
 Mixed Optimization -- RFO/linear search
 Update second derivatives using D2CorX and points    1    2
 DE= -4.19D-02 DEPred=-4.72D-02 R= 8.86D-01
 TightC=F SS=  1.41D+00  RLast= 3.00D-01 DXNew= 5.0454D-01 8.9974D-01
 Trust test= 8.86D-01 RLast= 3.00D-01 DXMaxT set to 5.05D-01
 ITU=  1  0
 Use linear search instead of GDIIS.
     Eigenvalues ---    0.00369   0.01189   0.01206   0.01470   0.01700
     Eigenvalues ---    0.03101   0.07358   0.07514   0.07812   0.07834
     Eigenvalues ---    0.15987   0.16000   0.16000   0.16000   0.16000
     Eigenvalues ---    0.16047   0.24816   0.25000   0.25000   0.30281
     Eigenvalues ---    0.32282   0.32284   0.32284   0.32284   0.32284
     Eigenvalues ---    0.32352   0.34750   0.39409   0.41866   0.45417
     Eigenvalues ---    0.59585   0.66787   0.85787
 RFO step:  Lambda=-1.41728419D-02 EMin= 3.68978880D-03
 Quartic linear search produced a step of  0.52660.
 Iteration  1 RMS(Cart)=  0.04829848 RMS(Int)=  0.00136084
 Iteration  2 RMS(Cart)=  0.00114454 RMS(Int)=  0.00068170
 Iteration  3 RMS(Cart)=  0.00000222 RMS(Int)=  0.00068169
 Iteration  4 RMS(Cart)=  0.00000000 RMS(Int)=  0.00068169
 ITry= 1 IFail=0 DXMaxC= 1.08D-01 DCOld= 1.00D+10 DXMaxT= 5.05D-01 DXLimC= 3.00D+00 Rises=F
 Variable       Old X    -DE/DX   Delta X   Delta X   Delta X     New X
                                 (Linear)    (Quad)   (Total)
    R1        2.52818  -0.04620  -0.04513  -0.08636  -0.13050   2.39768
    R2        2.36581   0.04791   0.02173   0.05774   0.07855   2.44436
    R3        2.66651  -0.02540  -0.01467  -0.09082  -0.10400   2.56251
    R4        2.70738   0.00129  -0.00529   0.01276   0.00747   2.71485
    R5        2.48946   0.00524  -0.01200   0.02951   0.01752   2.50698
    R6        2.51746   0.03860   0.04194   0.03917   0.07959   2.59705
    R7        2.79278  -0.01504  -0.02202  -0.03278  -0.05479   2.73799
    R8        2.07240  -0.01088  -0.01625  -0.02329  -0.03954   2.03286
    R9        2.07686  -0.00938  -0.01391  -0.02024  -0.03415   2.04271
   R10        2.07684  -0.00938  -0.01392  -0.02024  -0.03416   2.04268
   R11        2.07593  -0.01030  -0.01439  -0.02365  -0.03804   2.03789
   R12        2.07778  -0.00927  -0.01342  -0.02055  -0.03397   2.04381
   R13        2.07777  -0.00928  -0.01343  -0.02055  -0.03398   2.04379
    A1        1.83989  -0.01503  -0.07157   0.04208  -0.02938   1.81051
    A2        1.88392   0.03453   0.07839   0.00969   0.09008   1.97400
    A3        2.18764  -0.01842  -0.04551  -0.00059  -0.04710   2.14054
    A4        2.21162  -0.01611  -0.03288  -0.00911  -0.04298   2.16864
    A5        1.84735   0.00774  -0.02428   0.03668   0.01427   1.86162
    A6        1.84213  -0.01977  -0.02240  -0.02714  -0.05156   1.79057
[...]
   A16        1.88989   0.00005   0.00000   0.00048   0.00048   1.89037
   A17        1.89923   0.00002   0.00000   0.00021   0.00021   1.89944
   A18        1.89918   0.00004   0.00000   0.00026   0.00026   1.89944
   A19        1.92829  -0.00003   0.00000  -0.00027  -0.00027   1.92802
   A20        1.92829  -0.00004   0.00000  -0.00027  -0.00027   1.92802
   A21        1.91827  -0.00004   0.00000  -0.00039  -0.00039   1.91788
    D1        0.00077  -0.00005   0.00000  -0.00077  -0.00077   0.00000
    D2       -3.14098  -0.00003   0.00000  -0.00061  -0.00061   3.14159
    D3       -0.00060   0.00004   0.00000   0.00060   0.00060   0.00000
    D4        3.14134   0.00002   0.00000   0.00025   0.00025   3.14159
    D5       -0.00066   0.00004   0.00000   0.00066   0.00066   0.00000
    D6        3.14109   0.00003   0.00000   0.00050   0.00050  -3.14159
    D7       -0.00011  -0.00001   0.00000   0.00012   0.00012   0.00002
    D8        2.09651   0.00000   0.00000   0.00020   0.00020   2.09672
    D9       -2.09669  -0.00001   0.00000   0.00001   0.00001  -2.09668
   D10        3.14132   0.00001   0.00000   0.00029   0.00029  -3.14158
   D11       -1.04525   0.00001   0.00000   0.00037   0.00037  -1.04488
   D12        1.04473   0.00000   0.00000   0.00018   0.00018   1.04491
   D13        0.00023  -0.00002   0.00000  -0.00023  -0.00023   0.00000
   D14        0.00023  -0.00001   0.00000  -0.00023  -0.00023   0.00000
   D15        3.14144   0.00000   0.00000   0.00015   0.00015  -3.14159
   D16        3.14130   0.00001   0.00000   0.00027   0.00027   3.14157
   D17       -1.05730   0.00001   0.00000   0.00035   0.00035  -1.05695
   D18        1.05672   0.00000   0.00000   0.00019   0.00019   1.05691
   D19        0.00011  -0.00001   0.00000  -0.00014  -0.00014  -0.00002
   D20        2.08470   0.00000   0.00000  -0.00006  -0.00006   2.08464
   D21       -2.08447  -0.00001   0.00000  -0.00022  -0.00022  -2.08469
         Item               Value     Threshold  Converged?
 Maximum Force            0.000321     0.000450     YES
 RMS     Force            0.000079     0.000300     YES
 Maximum Displacement     0.001173     0.001800     YES
 RMS     Displacement     0.000400     0.001200     YES
 Predicted change in Energy=-5.869257D-07
 Optimization completed.
    -- Stationary point found.
                           ----------------------------
                           !   Optimized Parameters   !
                           ! (Angstroms and Degrees)  !
 --------------------------                            --------------------------
 ! Name  Definition              Value          Derivative Info.                !
 --------------------------------------------------------------------------------
 ! R1    R(1,2)                  1.281          -DE/DX =   -0.0003              !
 ! R2    R(1,5)                  1.315          -DE/DX =    0.0002              !
 ! R3    R(2,3)                  1.3315         -DE/DX =    0.0003              !
 ! R4    R(2,7)                  1.4471         -DE/DX =   -0.0001              !
 ! R5    R(3,4)                  1.3416         -DE/DX =   -0.0001              !
 ! R6    R(4,5)                  1.3757         -DE/DX =    0.0                 !
 ! R7    R(5,6)                  1.4467         -DE/DX =    0.0                 !
 ! R8    R(6,8)                  1.0822         -DE/DX =   -0.0001              !
 ! R9    R(6,9)                  1.0852         -DE/DX =    0.0                 !
 ! R10   R(6,10)                 1.0852         -DE/DX =    0.0                 !
 ! R11   R(7,11)                 1.082          -DE/DX =    0.0                 !
 ! R12   R(7,12)                 1.0844         -DE/DX =    0.0                 !
 ! R13   R(7,13)                 1.0844         -DE/DX =    0.0                 !
 ! A1    A(2,1,5)              102.8601         -DE/DX =    0.0                 !
 ! A2    A(1,2,3)              114.2912         -DE/DX =    0.0                 !
 ! A3    A(1,2,7)              122.4232         -DE/DX =    0.0001              !
 ! A4    A(3,2,7)              123.2856         -DE/DX =   -0.0001              !
 ! A5    A(2,3,4)              106.7732         -DE/DX =    0.0001              !
 ! A6    A(3,4,5)              102.7162         -DE/DX =   -0.0001              !
 ! A7    A(1,5,4)              113.3592         -DE/DX =    0.0001              !
 ! A8    A(1,5,6)              119.3919         -DE/DX =   -0.0001              !
 ! A9    A(4,5,6)              127.2489         -DE/DX =    0.0                 !
 ! A10   A(5,6,8)              107.2034         -DE/DX =   -0.0001              !
 ! A11   A(5,6,9)              110.0381         -DE/DX =    0.0                 !
 ! A12   A(5,6,10)             110.037          -DE/DX =    0.0                 !
 ! A13   A(8,6,9)              109.8604         -DE/DX =    0.0                 !
 ! A14   A(8,6,10)             109.8606         -DE/DX =    0.0                 !
 ! A15   A(9,6,10)             109.8046         -DE/DX =    0.0                 !
 ! A16   A(2,7,11)             108.2826         -DE/DX =    0.0001              !
 ! A17   A(2,7,12)             108.818          -DE/DX =    0.0                 !
 ! A18   A(2,7,13)             108.8148         -DE/DX =    0.0                 !
 ! A19   A(11,7,12)            110.4828         -DE/DX =    0.0                 !
 ! A20   A(11,7,13)            110.4827         -DE/DX =    0.0                 !
 ! A21   A(12,7,13)            109.9087         -DE/DX =    0.0                 !
 ! D1    D(5,1,2,3)              0.0438         -DE/DX =    0.0                 !
 ! D2    D(5,1,2,7)            180.035          -DE/DX =    0.0                 !
 ! D3    D(2,1,5,4)             -0.0344         -DE/DX =    0.0                 !
 ! D4    D(2,1,5,6)            179.9857         -DE/DX =    0.0                 !
 ! D5    D(1,2,3,4)             -0.0377         -DE/DX =    0.0                 !
 ! D6    D(7,2,3,4)           -180.0288         -DE/DX =    0.0                 !
 ! D7    D(1,2,7,11)            -0.0061         -DE/DX =    0.0                 !
 ! D8    D(1,2,7,12)           120.1214         -DE/DX =    0.0                 !
 ! D9    D(1,2,7,13)          -120.1317         -DE/DX =    0.0                 !
 ! D10   D(3,2,7,11)          -180.0157         -DE/DX =    0.0                 !
 ! D11   D(3,2,7,12)           -59.8882         -DE/DX =    0.0                 !
 ! D12   D(3,2,7,13)            59.8586         -DE/DX =    0.0                 !
 ! D13   D(2,3,4,5)              0.0133         -DE/DX =    0.0                 !
 ! D14   D(3,4,5,1)              0.0132         -DE/DX =    0.0                 !
 ! D15   D(3,4,5,6)           -180.0088         -DE/DX =    0.0                 !
 ! D16   D(1,5,6,8)            179.9832         -DE/DX =    0.0                 !
 ! D17   D(1,5,6,9)            -60.5788         -DE/DX =    0.0                 !
 ! D18   D(1,5,6,10)            60.5456         -DE/DX =    0.0                 !
 ! D19   D(4,5,6,8)              0.0064         -DE/DX =    0.0                 !
 ! D20   D(4,5,6,9)            119.4444         -DE/DX =    0.0                 !
 ! D21   D(4,5,6,10)          -119.4313         -DE/DX =    0.0                 !
 --------------------------------------------------------------------------------
 GradGradGradGradGradGradGradGradGradGradGradGradGradGradGradGradGradGrad

 Leave Link  103 at Wed Jun  9 17:58:50 2021, MaxMem=  3355443200 cpu:         0.2
 (Enter /usr/local/gqt/g09/l9999.exe)
 1\1\GINC-RENIO\Freq\RN12SX\6-311+G(d,p)\C3H6N4\USER\09-Jun-2021\0\\#P 
 Geom=AllCheck Guess=TCheck SCRF=Check GenChk RN12SX/6-311+G(d,p) Freq\
 \TITLE\\0,1\N,-1.1871303258,0.6318949995,0.3520151523\N,0.0540947768,0
 .3828242087,0.1565518451\N,0.2894090331,-0.7645253847,-0.4767185395\C,
 -0.9052380326,-1.3241113282,-0.7208120751\N,-1.7827792226,-0.411211147
 7,-0.1831542884\C,-3.2268135161,-0.4949021082,-0.1574327162\C,1.103238
 297,1.2796773374,0.5912653272\H,-3.5024963735,-1.4207175017,-0.6452109
 466\H,-3.5808341089,-0.4990250894,0.8684243497\H,-3.6575661645,0.34578
 87035,-0.6916789531\H,0.6430902548,2.1312119147,1.0749026438\H,1.74893
 52873,0.7525223375,1.2848382558\H,1.6729490948,1.5973690585,-0.2749650
 552\\Version=ES64L-G09RevD.01\State=1-A\HF=-336.7400276\RMSD=5.114e-09
 \RMSF=1.356e-04\ZeroPoint=0.1041468\Thermal=0.1108977\Dipole=-0.445652
 1,2.1007009,1.1602706\DipoleDeriv=0.1219053,0.372041,0.1961187,0.53068
 79,-0.5210641,-0.3151466,0.2817862,-0.3069865,-0.1679086,-0.1930919,-0
 .3049563,-0.1513769,-0.5400801,0.1674968,0.072782,-0.2791115,0.0609342
 ,0.1292552,-0.4968719,-0.2112304,-0.1042569,0.2241985,-0.3800778,-0.06
 16541,0.1318448,-0.0402293,-0.3148932,-0.2062066,0.1615135,0.0781713,-
 0.0295615,0.1303285,0.2861331,-0.0253109,0.2766644,-0.244248,-0.335129
 ,-0.1136854,-0.0488101,-0.424664,-0.1131304,-0.0004215,-0.2167995,-0.0
 156645,-0.0717152,0.6335222,-0.0231325,-0.0336139,0.1084245,0.1576335,
 -0.031445,0.0375741,-0.0249702,0.1904807,0.3697045,0.1868502,0.0914702
 ,0.2268608,0.2766304,0.0461405,0.1130939,0.0480169,0.1915341,0.0589911
 ,0.018588,0.0136606,-0.0603315,0.0159779,-0.0598631,-0.0290605,-0.0637
 486,0.098924,-0.022853,-0.0108722,-0.0093513,-0.0015053,0.1324137,-0.0
 050238,0.0789776,0.0037565,-0.0582045,-0.0285201,-0.0085715,0.0002409,
 0.0710363,0.0005284,0.0861123,-0.0399214,0.081697,0.0794282,0.0183046,
 0.0447598,0.0303335,-0.0253731,0.0363686,-0.0565606,-0.0076505,-0.0599
 854,0.1109857,0.0350652,-0.0377438,-0.0626162,0.0018217,0.0126776,0.06
 62358,-0.0934787,0.0173789,0.0690185,0.0451796,-0.0735604,0.0000304,-0
 .0815142,0.0842168,-0.0272891,0.0480565,0.0231365,-0.012657\Polar=99.5
 927915,5.7388443,84.0693749,1.0771261,13.6997356,65.6229113\PG=C01 [X(
 C3H6N4)]\NImag=0\\0.62342091,-0.02466504,0.46034915,-0.03836444,0.1890
 1208,0.21765456,-0.36834155,0.02710587,0.02858524,0.87017459,0.0756125
 2,-0.12277974,-0.02466608,0.12723728,0.56507850,0.05483622,-0.02229709
 ,-0.09880559,0.03530683,0.20035493,0.29047701,-0.06500712,0.00892222,0
 .00985790,-0.13840523,0.01657818,0.01159835,0.58581320,0.08071123,-0.0
 5765384,-0.05502783,0.03278697,-0.17003092,-0.04781285,0.00156761,0.33
 831410,0.04868348,-0.05148719,0.00636277,0.02041098,-0.04701418,-0.111
 24575,-0.02281960,0.12613225,0.17471420,0.01269414,0.06063158,0.033661
 49,-0.00781432,-0.09886712,-0.05208616,-0.28630259,-0.09287803,-0.0400
 0897,0.44290079,-0.02966889,-0.06690486,-0.05098946,-0.01474686,-0.068
 96619,-0.04845535,-0.06774968,-0.12092791,-0.01990426,0.07400552,0.402
 17980,-0.01520883,-0.05541161,0.00067202,-0.00653401,-0.04432810,-0.00
 181424,-0.02641430,-0.01865931,-0.08681489,0.02288467,0.16318639,0.181
 35422,-0.15812946,-0.04159369,-0.01881646,-0.13969948,-0.03990352,-0.0
 1384129,-0.10724812,-0.02219234,-0.00600932,-0.14276067,0.03830948,0.0
 2444811,0.86220172,-0.06436145,-0.21893519,-0.07057657,-0.08110426,-0.
 03076060,-0.02229299,0.06263601,0.02686951,0.00337290,0.03541386,-0.14
 940655,-0.04605593,0.06252618,0.46203934,-0.03112575,-0.07170256,-0.11
 995016,-0.03619035,-0.02433154,0.00635131,0.03993328,0.00754974,0.0170
 9197,0.02288185,-0.04618185,-0.09374943,-0.00026643,0.15568836,0.25308
 004,-0.01937448,-0.00977974,-0.00462837,0.00248104,0.00309587,0.001725
 34,0.00168462,-0.00056865,0.00006198,-0.02014916,0.00377489,0.00271689
 ,-0.24064464,-0.00745756,0.00449706,0.49707217,-0.04093412,-0.00240277
 ,0.00390808,-0.00100769,-0.00771564,-0.00604222,0.00746026,0.00219765,
 -0.00414964,0.01455988,0.00747136,0.00683715,0.00595810,-0.09450953,-0
 .01505234,-0.00798411,0.62943542,-0.02149168,0.00238170,-0.00357643,-0
 .00050230,-0.00624071,0.00018435,0.00440740,-0.00376185,0.00692612,0.0
 0856991,0.00736293,-0.00290909,0.01174944,-0.01438929,-0.07559194,0.00
 066482,0.01707221,0.60783086,-0.02928643,-0.02262931,-0.01130692,-0.17
 534062,-0.05247573,-0.02311547,0.01487464,-0.00245475,-0.00224703,0.00
 242178,0.00529633,0.00298476,-0.00470293,0.00090791,0.00113201,-0.0000
 0845,-0.00107926,-0.00048263,0.56151048,-0.00352113,0.00651258,0.00904
 482,-0.05874086,-0.14457539,-0.03939347,-0.02545596,-0.02155786,-0.008
 40431,0.00419314,-0.00412317,-0.00504283,0.00690491,0.00678977,-0.0012
 0381,-0.00121510,0.00108656,-0.00047762,-0.07199421,0.57612173,-0.0009
 5518,0.00997539,-0.00442374,-0.02651747,-0.03970273,-0.08677095,-0.014
 70488,-0.00953384,-0.00818983,0.00239113,-0.00509096,0.00192719,0.0043
 8680,-0.00090311,0.00767708,-0.00055564,-0.00048286,0.00184358,-0.0370
 3121,-0.01054158,0.59815024,-0.00624801,0.00218166,0.00150185,-0.00195
 350,-0.00199946,-0.00095352,0.00088398,0.00043852,0.00016550,0.0017843
 7,-0.00130903,-0.00076913,-0.01479107,-0.03677803,-0.01929328,-0.06468
 447,-0.05110142,-0.02684144,-0.00027868,0.00050107,0.00029122,0.078064
 64,-0.00021272,0.00034652,0.00001850,0.00073445,0.00006122,-0.00036861
 ,-0.00046539,0.00025399,0.00046930,0.00219222,0.00013526,-0.00033164,-
 0.00065383,-0.00132953,0.00052458,-0.06560970,-0.26347914,-0.11357502,
 0.00009604,0.00016216,0.00001772,0.06859405,0.27809154,0.00020960,-0.0
 0009761,0.00026554,0.00052726,-0.00023439,0.00052446,-0.00032393,0.000
 42479,-0.00032466,0.00112680,-0.00015894,0.00040572,0.00026217,0.00230
 196,-0.00100426,-0.03469642,-0.11429071,-0.10796660,0.00007173,-0.0000
 0262,0.00011631,0.03552748,0.12272552,0.10993855,0.00386006,0.00222555
 ,0.00205735,-0.00214851,0.00130896,0.00012362,-0.00222581,-0.00010929,
 -0.00156190,0.00010464,-0.00403284,0.00012954,-0.02493751,0.00140587,0
 .03586104,-0.07183009,-0.00150475,0.07382827,0.00012294,0.00041310,-0.
 00022355,0.00328246,0.00163516,-0.00850961,0.08888096,0.00025764,0.000
 61340,0.00043915,-0.00089103,0.00047405,0.00039165,-0.00008813,-0.0007
 3384,0.00019958,0.00155624,-0.00010028,-0.00049458,-0.00240573,-0.0009
 0882,0.00090417,0.00015729,-0.04869897,0.00053180,0.00001664,0.0001739
 6,-0.00020214,0.00968600,0.00284490,-0.02533122,0.00013172,0.04494262,
 -0.00033770,-0.00048190,0.00036768,0.00024780,0.00030786,0.00028156,-0
 .00031077,0.00011904,0.00023533,-0.00010180,0.00048819,-0.00011262,-0.
 00016153,-0.00105388,0.00577577,0.08345547,0.00083641,-0.30712176,0.00
 002812,0.00004644,-0.00015460,0.00317771,0.00202432,-0.01052108,-0.090
 05303,-0.00068366,0.32391224,0.00380708,0.00311051,0.00050127,-0.00214
 447,0.00072099,0.00118999,-0.00207597,-0.00148247,0.00089284,0.0000023
 1,-0.00211700,-0.00347120,-0.02746281,0.02929844,-0.01610170,-0.085105
 58,0.07583948,-0.04973948,0.00015400,0.00004865,0.00045659,0.00414225,
 -0.00627743,0.00581187,0.00503748,-0.00840483,0.00403337,0.10380066,-0
 .00003012,0.00054118,-0.00032284,-0.00037915,0.00067805,0.00025595,-0.
 00042837,0.00001771,-0.00035704,0.00080349,-0.00016670,0.00029273,-0.0
 0303998,0.00485696,-0.00460877,0.08481634,-0.22329848,0.11092386,0.000
 06257,-0.00012411,0.00025846,0.00994696,-0.01708462,0.01466595,-0.0012
 1114,0.00142350,-0.00165814,-0.09054355,0.23312559,0.00013076,0.000344
 96,0.00049452,-0.00072080,0.00017930,0.00007265,0.00022422,-0.00022355
 ,-0.00066539,0.00136786,-0.00027018,0.00005829,0.00034580,-0.00443154,
 0.00253164,-0.05360748,0.11114376,-0.11924571,-0.00000197,-0.00000869,
 0.00011181,0.00726971,-0.01149557,0.00854976,-0.01160674,0.02426165,-0
 .01270478,0.05661173,-0.11945221,0.12080788,0.00120081,-0.00026835,-0.
 00016417,0.01094301,-0.02895027,-0.01636909,-0.00481841,-0.00054394,-0
 .00002004,-0.00030679,-0.00201809,-0.00104863,0.00046480,0.00019334,0.
 00006344,0.00006571,0.00011979,0.00005439,-0.10844843,0.10864208,0.061
 81254,0.00004503,-0.00000525,-0.00000446,-0.00003613,-0.00000375,0.000
 01039,-0.00003860,0.00000570,-0.00000593,0.11260417,0.00243843,0.00177
 567,0.00039405,0.00954400,-0.02220333,-0.01078061,-0.00395632,0.000467
 46,0.00001734,-0.00010782,-0.00060617,-0.00064828,-0.00024874,-0.00034
 350,0.00003004,0.00009769,0.00008291,0.00011957,0.09378067,-0.22616407
 ,-0.10132055,0.00003215,0.00000618,-0.00000502,-0.00005000,0.00000375,
 0.00001703,-0.00003289,0.00000778,-0.00000362,-0.10206058,0.24550579,0
 .00130323,0.00052674,0.00104841,0.00448133,-0.00890407,-0.00820519,-0.
 00186990,-0.00015150,0.00080600,-0.00001473,-0.00055532,0.00029926,-0.
 00017541,0.00000786,-0.00036266,0.00004239,0.00011850,-0.00008469,0.05
 376366,-0.10204414,-0.10542353,0.00001585,-0.00000318,0.00000998,-0.00
 000396,-0.00000236,0.00000149,-0.00003750,0.00001160,-0.00000014,-0.05
 859308,0.11380797,0.10906602,0.00065279,-0.00132828,-0.00378690,-0.024
 67189,0.00835115,-0.01695979,0.00142315,0.00239807,0.00121072,-0.00129
 168,-0.00008488,0.00052349,-0.00106487,-0.00196099,0.00041351,0.000259
 24,-0.00029249,0.00013549,-0.14152999,0.08091836,-0.10406395,-0.000122
 19,-0.00002352,0.00001733,-0.00010294,-0.00003450,-0.00001058,-0.00001
 087,0.00002946,0.00000744,-0.00612373,0.00474310,-0.00770847,0.1605060
 0,0.00140218,-0.00028234,-0.00190428,-0.02182739,0.01056152,-0.0188492
 6,0.00036645,0.00108727,0.00055493,-0.00047658,0.00057179,0.00070558,-
 0.00208688,-0.00213188,-0.00046933,0.00034535,-0.00030073,0.00037661,0
 .08938499,-0.12377573,0.09596630,-0.00009918,-0.00001704,0.00001848,-0
 .00017907,-0.00004385,0.00000176,-0.00000650,0.00004932,-0.00001352,0.
 01206321,-0.00923870,0.01719326,-0.08439316,0.12734663,0.00247571,0.00
 029220,-0.00045474,-0.00866509,0.00062749,-0.00491679,0.00045115,0.000
 88258,0.00084699,-0.00080294,0.00008143,0.00048235,-0.00046176,-0.0011
 9313,-0.00105293,0.00018710,-0.00001037,0.00005922,-0.10694997,0.09057
 939,-0.16477922,-0.00003834,-0.00000286,0.00001472,-0.00005912,-0.0000
 2513,0.00000708,-0.00003771,0.00000742,-0.00000268,0.01000852,-0.00655
 978,0.01168004,0.11932410,-0.09731843,0.17238660,0.00075127,-0.0039130
 0,0.00090216,-0.02307906,-0.01070883,0.01854496,0.00140364,0.00232707,
 0.00124138,-0.00128283,0.00034106,-0.00024136,-0.00122495,-0.00071933,
 -0.00180469,0.00023410,-0.00003366,-0.00035220,-0.11948830,-0.04069403
 ,0.11471360,-0.00012481,-0.00000407,-0.00001981,-0.00000755,0.00002242
 ,0.00002256,-0.00010548,-0.00003221,-0.00001462,-0.00555145,-0.0041797
 0,0.00879659,0.01207699,0.00550659,-0.01543165,0.13639843,0.00297148,-
 0.00117975,0.00067038,-0.01871133,-0.00982154,0.01528993,0.00061311,0.
 00169669,0.00057032,-0.00102638,0.00084364,-0.00004956,-0.00157396,-0.
 00222999,-0.00114669,0.00032742,0.00013135,-0.00032419,-0.03891188,-0.
 07052642,0.06155990,-0.00009330,0.00000858,-0.00001618,-0.00003327,0.0
 0000959,0.00003654,-0.00015340,-0.00002618,-0.00003079,0.01282611,0.01
 070623,-0.02000537,-0.00832230,-0.00382625,0.01263919,0.05208769,0.074
 21405,-0.00015543,-0.00105511,0.00034516,-0.01042943,-0.00604778,0.013
 86716,-0.00002892,0.00006233,0.00025713,0.00013088,0.00048737,0.000201
 20,-0.00146011,-0.00047464,-0.00079644,0.00013686,0.00011202,-0.000347
 92,0.12315493,0.06744842,-0.24008433,-0.00005361,-0.00000305,-0.000008
 44,0.00001807,0.00001110,0.00003367,-0.00011006,-0.00001697,-0.0000078
 6,0.00425612,0.00493187,-0.00883499,0.01089761,0.00373791,-0.01427064,
 -0.12635691,-0.06919348,0.24964630\\-0.00033280,-0.00008487,-0.0001622
 3,0.00028310,-0.00047956,-0.00017592,0.00005322,0.00028566,0.00006898,
 -0.00003582,0.00008734,0.00005762,-0.00003839,0.00014902,0.00016080,0.
 00016691,0.00001604,0.00000432,0.00012711,0.00011374,0.00008488,-0.000
 06774,-0.00004114,-0.00001853,-0.00003893,-0.00002273,0.00002445,-0.00
 003818,0.00000769,-0.00002886,-0.00005051,0.00000326,0.00000342,-0.000
 00787,-0.00002710,0.00001574,-0.00002011,-0.00000737,-0.00003466\\\@


 ALL MY ATTEMPTS TO ADAPT THE THEORETICAL FOUNDATIONS OF PHYSICS
 TO THESE NEW NOTIONS FAILED COMPLETELY. IT WAS AS IF THE GROUND HAD
 BEEN PULLED OUT FROM UNDER ONE WITH NO FIRM FOUNDATION TO BE SEEN ANYWHERE,
 UPON WHICH ONE COULD HAVE BUILT.  -- A.EINSTEIN
 Job cpu time:       0 days  0 hours 38 minutes 32.8 seconds.
 File lengths (MBytes):  RWF=     75 Int=      0 D2E=      0 Chk=      8 Scr=      1
 Normal termination of Gaussian 09 at Wed Jun  9 17:58:51 2021.
