 Entering Gaussian System, Link 0=g09
 Input=NHC33.gjf
 Output=NHC33.log
 Initial command:
 /usr/local/gqt/g09/l1.exe "/usr/local/gqt/lixogaussian/Gau-22437.inp" -scrdir="/usr/local/gqt/lixogaussian/"
 Entering Link 1 = /usr/local/gqt/g09/l1.exe PID=     22439.
  
 Copyright (c) 1988,1990,1992,1993,1995,1998,2003,2009,2013,
            Gaussian, Inc.  All Rights Reserved.
  
 This is part of the Gaussian(R) 09 program.  It is based on
 the Gaussian(R) 03 system (copyright 2003, Gaussian, Inc.),
 the Gaussian(R) 98 system (copyright 1998, Gaussian, Inc.),
 the Gaussian(R) 94 system (copyright 1995, Gaussian, Inc.),
 the Gaussian 92(TM) system (copyright 1992, Gaussian, Inc.),
 the Gaussian 90(TM) system (copyright 1990, Gaussian, Inc.),
 the Gaussian 88(TM) system (copyright 1988, Gaussian, Inc.),
 the Gaussian 86(TM) system (copyright 1986, Carnegie Mellon
 University), and the Gaussian 82(TM) system (copyright 1983,
 Carnegie Mellon University). Gaussian is a federally registered
 trademark of Gaussian, Inc.
  
 This software contains proprietary and confidential information,
 including trade secrets, belonging to Gaussian, Inc.
  
 This software is provided under written license and may be
 used, copied, transmitted, or stored only in accord with that
 written license.
  
 The following legend is applicable only to US Government
 contracts under FAR:
  
                    RESTRICTED RIGHTS LEGEND
  
 Use, reproduction and disclosure by the US Government is
 subject to restrictions as set forth in subparagraphs (a)
 and (c) of the Commercial Computer Software - Restricted
 Rights clause in FAR 52.227-19.
  
 Gaussian, Inc.
 340 Quinnipiac St., Bldg. 40, Wallingford CT 06492
  
  
 ---------------------------------------------------------------
 Warning -- This program may not be used in any manner that
 competes with the business of Gaussian, Inc. or will provide
 assistance to any competitor of Gaussian, Inc.  The licensee
 of this program is prohibited from giving any competitor of
 Gaussian, Inc. access to this program.  By using this program,
 the user acknowledges that Gaussian, Inc. is engaged in the
 business of creating and licensing software in the field of
 computational chemistry and represents and warrants to the
 licensee that it is not a competitor of Gaussian, Inc. and that
 it will not use this program in any manner prohibited above.
 ---------------------------------------------------------------
  

 Cite this work as:
 Gaussian 09, Revision D.01,
 M. J. Frisch, G. W. Trucks, H. B. Schlegel, G. E. Scuseria, 
 M. A. Robb, J. R. Cheeseman, G. Scalmani, V. Barone, B. Mennucci, 
 G. A. Petersson, H. Nakatsuji, M. Caricato, X. Li, H. P. Hratchian, 
 A. F. Izmaylov, J. Bloino, G. Zheng, J. L. Sonnenberg, M. Hada, 
 M. Ehara, K. Toyota, R. Fukuda, J. Hasegawa, M. Ishida, T. Nakajima, 
 Y. Honda, O. Kitao, H. Nakai, T. Vreven, J. A. Montgomery, Jr., 
 J. E. Peralta, F. Ogliaro, M. Bearpark, J. J. Heyd, E. Brothers, 
 K. N. Kudin, V. N. Staroverov, T. Keith, R. Kobayashi, J. Normand, 
 K. Raghavachari, A. Rendell, J. C. Burant, S. S. Iyengar, J. Tomasi, 
 M. Cossi, N. Rega, J. M. Millam, M. Klene, J. E. Knox, J. B. Cross, 
 V. Bakken, C. Adamo, J. Jaramillo, R. Gomperts, R. E. Stratmann, 
 O. Yazyev, A. J. Austin, R. Cammi, C. Pomelli, J. W. Ochterski, 
 R. L. Martin, K. Morokuma, V. G. Zakrzewski, G. A. Voth, 
 P. Salvador, J. J. Dannenberg, S. Dapprich, A. D. Daniels, 
 O. Farkas, J. B. Foresman, J. V. Ortiz, J. Cioslowski, 
 and D. J. Fox, Gaussian, Inc., Wallingford CT, 2013.
 
 ******************************************
 Gaussian 09:  ES64L-G09RevD.01 24-Apr-2013
                14-Nov-2021 
 ******************************************
 %nprocshared=16
 Will use up to   16 processors via shared memory.
 %mem=50GB
 %chk=NHC33.chk
 ----------------------------------------------------------
 #p opt freq n12sx/6-311+g(d,p) scrf=(iefpcm,solvent=water)
 ----------------------------------------------------------
 1/14=-1,18=20,19=15,26=3,38=1/1,3;
 2/9=110,12=2,17=6,18=5,40=1/2;
 3/5=4,6=6,7=111,11=2,16=1,25=1,30=1,70=2201,71=1,72=1,74=-69/1,2,3;
 4//1;
 5/5=2,38=5,53=1/2;
 6/7=2,8=2,9=2,10=2,28=1/1;
 7//1,2,3,16;
 1/14=-1,18=20,19=15,26=3/3(2);
 2/9=110/2;
 99//99;
 2/9=110/2;
 3/5=4,6=6,7=111,11=2,16=1,25=1,30=1,70=2205,71=1,72=1,74=-69/1,2,3;
 4/5=5,16=3,69=1/1;
 5/5=2,38=5,53=1/2;
 7//1,2,3,16;
 1/14=-1,18=20,19=15,26=3/3(-5);
 2/9=110/2;
 6/7=2,8=2,9=2,10=2,19=2,28=1/1;
 99/9=1/99;
 Leave Link    1 at Sun Nov 14 23:28:59 2021, MaxMem=  6710886400 cpu:         0.7
 (Enter /usr/local/gqt/g09/l101.exe)
 -----
 TITLE
 -----
 Symbolic Z-matrix:
 Charge =  0 Multiplicity = 1
 8                    -4.27365   0.10811  -0.88022 
 6                    -3.04851   0.85264  -1.11919 
 7                    -1.93589  -0.03708  -0.79218 
 6                    -2.48185  -1.25977  -0.51296 
 6                    -3.80473  -1.15686  -0.54239 
 6                    -4.6179   -2.18266  -0.27024 
 6                    -4.0832   -3.42726   0.06226 
 6                    -4.9316   -4.49746   0.34606 
 6                    -6.3146   -4.32296   0.29746 
 6                    -6.8493   -3.07836  -0.03494 
 6                    -6.0009   -2.00816  -0.31884 
 6                    -3.2393    2.26754  -1.56938 
 6                    -2.89581   2.63804  -2.86947 
 6                    -3.07348   3.95645  -3.28886 
 6                    -3.59472   4.90421  -2.4082 
 6                    -3.93829   4.5337   -1.10816 
 6                    -3.76054   3.2153   -0.68872 
 1                    -2.99251  -3.56482   0.10068 
 1                    -4.50997  -5.47904   0.6082 
 1                    -6.98362  -5.16694   0.52129 
 1                    -7.93999  -2.94076  -0.0732 
 1                    -6.42254  -1.02659  -0.58105 
 1                    -2.48483   1.89056  -3.564 
 1                    -2.80251   4.24871  -4.31412 
 1                    -3.73483   5.9439   -2.73898 
 1                    -4.34941   5.28115  -0.41368 
 1                    -4.03143   2.92305   0.33657 
 6                    -0.50857   0.31371  -0.76809 
 6                     0.17263   0.48613   0.4487 
 6                     0.21331   0.48613  -1.96119 
 6                     1.52601   0.81875   0.47187 
 6                     1.56671   0.81875  -1.93867 
 6                     2.22958   0.98666  -0.72187 
 1                    -0.3651    0.35788   1.38297 
 1                    -0.29258   0.35788  -2.91309 
 1                     2.03177   0.94696   1.42465 
 1                     2.10433   0.94696  -2.87383 
 1                     3.28406   1.24582  -0.70407 
 
 NAtoms=     38 NQM=       38 NQMF=       0 NMMI=      0 NMMIF=      0
                NMic=       0 NMicF=      0.
                    Isotopes and Nuclear Properties:
 (Nuclear quadrupole moments (NQMom) in fm**2, nuclear magnetic moments (NMagM)
  in nuclear magnetons)

  Atom         1           2           3           4           5           6           7           8           9          10
 IAtWgt=          16          12          14          12          12          12          12          12          12          12
 AtmWgt=  15.9949146  12.0000000  14.0030740  12.0000000  12.0000000  12.0000000  12.0000000  12.0000000  12.0000000  12.0000000
 NucSpn=           0           0           2           0           0           0           0           0           0           0
 AtZEff=   0.0000000   0.0000000   0.0000000   0.0000000   0.0000000   0.0000000   0.0000000   0.0000000   0.0000000   0.0000000
 NQMom=    0.0000000   0.0000000   2.0440000   0.0000000   0.0000000   0.0000000   0.0000000   0.0000000   0.0000000   0.0000000
 NMagM=    0.0000000   0.0000000   0.4037610   0.0000000   0.0000000   0.0000000   0.0000000   0.0000000   0.0000000   0.0000000
 AtZNuc=   8.0000000   6.0000000   7.0000000   6.0000000   6.0000000   6.0000000   6.0000000   6.0000000   6.0000000   6.0000000

  Atom        11          12          13          14          15          16          17          18          19          20
 IAtWgt=          12          12          12          12          12          12          12           1           1           1
 AtmWgt=  12.0000000  12.0000000  12.0000000  12.0000000  12.0000000  12.0000000  12.0000000   1.0078250   1.0078250   1.0078250
 NucSpn=           0           0           0           0           0           0           0           1           1           1
 AtZEff=   0.0000000   0.0000000   0.0000000   0.0000000   0.0000000   0.0000000   0.0000000   0.0000000   0.0000000   0.0000000
 NQMom=    0.0000000   0.0000000   0.0000000   0.0000000   0.0000000   0.0000000   0.0000000   0.0000000   0.0000000   0.0000000
 NMagM=    0.0000000   0.0000000   0.0000000   0.0000000   0.0000000   0.0000000   0.0000000   2.7928460   2.7928460   2.7928460
 AtZNuc=   6.0000000   6.0000000   6.0000000   6.0000000   6.0000000   6.0000000   6.0000000   1.0000000   1.0000000   1.0000000

  Atom        21          22          23          24          25          26          27          28          29          30
 IAtWgt=           1           1           1           1           1           1           1          12          12          12
 AtmWgt=   1.0078250   1.0078250   1.0078250   1.0078250   1.0078250   1.0078250   1.0078250  12.0000000  12.0000000  12.0000000
 NucSpn=           1           1           1           1           1           1           1           0           0           0
 AtZEff=   0.0000000   0.0000000   0.0000000   0.0000000   0.0000000   0.0000000   0.0000000   0.0000000   0.0000000   0.0000000
 NQMom=    0.0000000   0.0000000   0.0000000   0.0000000   0.0000000   0.0000000   0.0000000   0.0000000   0.0000000   0.0000000
 NMagM=    2.7928460   2.7928460   2.7928460   2.7928460   2.7928460   2.7928460   2.7928460   0.0000000   0.0000000   0.0000000
 AtZNuc=   1.0000000   1.0000000   1.0000000   1.0000000   1.0000000   1.0000000   1.0000000   6.0000000   6.0000000   6.0000000

  Atom        31          32          33          34          35          36          37          38
 IAtWgt=          12          12          12           1           1           1           1           1
 AtmWgt=  12.0000000  12.0000000  12.0000000   1.0078250   1.0078250   1.0078250   1.0078250   1.0078250
 NucSpn=           0           0           0           1           1           1           1           1
 AtZEff=   0.0000000   0.0000000   0.0000000   0.0000000   0.0000000   0.0000000   0.0000000   0.0000000
 NQMom=    0.0000000   0.0000000   0.0000000   0.0000000   0.0000000   0.0000000   0.0000000   0.0000000
 NMagM=    0.0000000   0.0000000   0.0000000   2.7928460   2.7928460   2.7928460   2.7928460   2.7928460
 AtZNuc=   6.0000000   6.0000000   6.0000000   1.0000000   1.0000000   1.0000000   1.0000000   1.0000000
 Leave Link  101 at Sun Nov 14 23:28:59 2021, MaxMem=  6710886400 cpu:         6.8
 (Enter /usr/local/gqt/g09/l103.exe)

 GradGradGradGradGradGradGradGradGradGradGradGradGradGradGradGradGradGrad
 Berny optimization.
 Initialization pass.
                           ----------------------------
                           !    Initial Parameters    !
                           ! (Angstroms and Degrees)  !
 --------------------------                            --------------------------
 ! Name  Definition              Value          Derivative Info.                !
 --------------------------------------------------------------------------------
 ! R1    R(1,2)                  1.4534         estimate D2E/DX2                !
 ! R2    R(1,5)                  1.3907         estimate D2E/DX2                !
 ! R3    R(2,3)                  1.4617         estimate D2E/DX2                !
 ! R4    R(2,12)                 1.497          estimate D2E/DX2                !
 ! R5    R(3,4)                  1.3678         estimate D2E/DX2                !
 ! R6    R(3,28)                 1.47           estimate D2E/DX2                !
 ! R7    R(4,5)                  1.3272         estimate D2E/DX2                !
 ! R8    R(5,6)                  1.337          estimate D2E/DX2                !
 ! R9    R(6,7)                  1.3948         estimate D2E/DX2                !
 ! R10   R(6,11)                 1.3948         estimate D2E/DX2                !
 ! R11   R(7,8)                  1.3949         estimate D2E/DX2                !
 ! R12   R(7,18)                 1.1            estimate D2E/DX2                !
 ! R13   R(8,9)                  1.3948         estimate D2E/DX2                !
 ! R14   R(8,19)                 1.1            estimate D2E/DX2                !
 ! R15   R(9,10)                 1.3948         estimate D2E/DX2                !
 ! R16   R(9,20)                 1.1            estimate D2E/DX2                !
 ! R17   R(10,11)                1.3949         estimate D2E/DX2                !
 ! R18   R(10,21)                1.1            estimate D2E/DX2                !
 ! R19   R(11,22)                1.1            estimate D2E/DX2                !
 ! R20   R(12,13)                1.3948         estimate D2E/DX2                !
 ! R21   R(12,17)                1.3948         estimate D2E/DX2                !
 ! R22   R(13,14)                1.3949         estimate D2E/DX2                !
 ! R23   R(13,23)                1.1            estimate D2E/DX2                !
 ! R24   R(14,15)                1.3948         estimate D2E/DX2                !
 ! R25   R(14,24)                1.1            estimate D2E/DX2                !
 ! R26   R(15,16)                1.3948         estimate D2E/DX2                !
 ! R27   R(15,25)                1.1            estimate D2E/DX2                !
 ! R28   R(16,17)                1.3949         estimate D2E/DX2                !
 ! R29   R(16,26)                1.1            estimate D2E/DX2                !
 ! R30   R(17,27)                1.1            estimate D2E/DX2                !
 ! R31   R(28,29)                1.4051         estimate D2E/DX2                !
 ! R32   R(28,30)                1.4051         estimate D2E/DX2                !
 ! R33   R(29,31)                1.3939         estimate D2E/DX2                !
 ! R34   R(29,34)                1.0856         estimate D2E/DX2                !
 ! R35   R(30,32)                1.3939         estimate D2E/DX2                !
 ! R36   R(30,35)                1.0856         estimate D2E/DX2                !
 ! R37   R(31,33)                1.3958         estimate D2E/DX2                !
 ! R38   R(31,36)                1.0863         estimate D2E/DX2                !
 ! R39   R(32,33)                1.3958         estimate D2E/DX2                !
 ! R40   R(32,37)                1.0863         estimate D2E/DX2                !
 ! R41   R(33,38)                1.086          estimate D2E/DX2                !
 ! A1    A(2,1,5)              102.8066         estimate D2E/DX2                !
 ! A2    A(1,2,3)              107.0405         estimate D2E/DX2                !
 ! A3    A(1,2,12)             115.2259         estimate D2E/DX2                !
 ! A4    A(3,2,12)             137.6982         estimate D2E/DX2                !
 ! A5    A(2,3,4)              106.6156         estimate D2E/DX2                !
 ! A6    A(2,3,28)             126.6922         estimate D2E/DX2                !
 ! A7    A(4,3,28)             126.6922         estimate D2E/DX2                !
 ! A8    A(3,4,5)              108.9053         estimate D2E/DX2                !
 ! A9    A(1,5,4)              114.3296         estimate D2E/DX2                !
 ! A10   A(1,5,6)              122.8352         estimate D2E/DX2                !
 ! A11   A(4,5,6)              122.8352         estimate D2E/DX2                !
 ! A12   A(5,6,7)              119.9986         estimate D2E/DX2                !
 ! A13   A(5,6,11)             119.9985         estimate D2E/DX2                !
 ! A14   A(7,6,11)             120.0029         estimate D2E/DX2                !
 ! A15   A(6,7,8)              119.9969         estimate D2E/DX2                !
 ! A16   A(6,7,18)             120.0015         estimate D2E/DX2                !
 ! A17   A(8,7,18)             120.0016         estimate D2E/DX2                !
 ! A18   A(7,8,9)              120.0002         estimate D2E/DX2                !
 ! A19   A(7,8,19)             119.9999         estimate D2E/DX2                !
 ! A20   A(9,8,19)             119.9999         estimate D2E/DX2                !
 ! A21   A(8,9,10)             120.0033         estimate D2E/DX2                !
 ! A22   A(8,9,20)             119.9984         estimate D2E/DX2                !
 ! A23   A(10,9,20)            119.9984         estimate D2E/DX2                !
 ! A24   A(9,10,11)            119.9972         estimate D2E/DX2                !
 ! A25   A(9,10,21)            120.0014         estimate D2E/DX2                !
 ! A26   A(11,10,21)           120.0014         estimate D2E/DX2                !
 ! A27   A(6,11,10)            119.9996         estimate D2E/DX2                !
 ! A28   A(6,11,22)            120.0002         estimate D2E/DX2                !
 ! A29   A(10,11,22)           120.0002         estimate D2E/DX2                !
 ! A30   A(2,12,13)            119.9986         estimate D2E/DX2                !
 ! A31   A(2,12,17)            119.9986         estimate D2E/DX2                !
 ! A32   A(13,12,17)           120.0028         estimate D2E/DX2                !
 ! A33   A(12,13,14)           119.997          estimate D2E/DX2                !
 ! A34   A(12,13,23)           120.0015         estimate D2E/DX2                !
 ! A35   A(14,13,23)           120.0015         estimate D2E/DX2                !
 ! A36   A(13,14,15)           120.0001         estimate D2E/DX2                !
 ! A37   A(13,14,24)           119.9999         estimate D2E/DX2                !
 ! A38   A(15,14,24)           119.9999         estimate D2E/DX2                !
 ! A39   A(14,15,16)           120.0033         estimate D2E/DX2                !
 ! A40   A(14,15,25)           119.9983         estimate D2E/DX2                !
 ! A41   A(16,15,25)           119.9984         estimate D2E/DX2                !
 ! A42   A(15,16,17)           119.9972         estimate D2E/DX2                !
 ! A43   A(15,16,26)           120.0014         estimate D2E/DX2                !
 ! A44   A(17,16,26)           120.0014         estimate D2E/DX2                !
 ! A45   A(12,17,16)           119.9996         estimate D2E/DX2                !
 ! A46   A(12,17,27)           120.0003         estimate D2E/DX2                !
 ! A47   A(16,17,27)           120.0002         estimate D2E/DX2                !
 ! A48   A(3,28,29)            120.9441         estimate D2E/DX2                !
 ! A49   A(3,28,30)            120.9441         estimate D2E/DX2                !
 ! A50   A(29,28,30)           118.1119         estimate D2E/DX2                !
 ! A51   A(28,29,31)           120.9574         estimate D2E/DX2                !
 ! A52   A(28,29,34)           119.3831         estimate D2E/DX2                !
 ! A53   A(31,29,34)           119.6595         estimate D2E/DX2                !
 ! A54   A(28,30,32)           120.9574         estimate D2E/DX2                !
 ! A55   A(28,30,35)           119.3831         estimate D2E/DX2                !
 ! A56   A(32,30,35)           119.6595         estimate D2E/DX2                !
 ! A57   A(29,31,33)           120.2599         estimate D2E/DX2                !
 ! A58   A(29,31,36)           119.6574         estimate D2E/DX2                !
 ! A59   A(33,31,36)           120.0828         estimate D2E/DX2                !
 ! A60   A(30,32,33)           120.2599         estimate D2E/DX2                !
 ! A61   A(30,32,37)           119.6574         estimate D2E/DX2                !
 ! A62   A(33,32,37)           120.0828         estimate D2E/DX2                !
 ! A63   A(31,33,32)           119.4536         estimate D2E/DX2                !
 ! A64   A(31,33,38)           120.2732         estimate D2E/DX2                !
 ! A65   A(32,33,38)           120.2732         estimate D2E/DX2                !
 ! D1    D(5,1,2,3)             -4.3621         estimate D2E/DX2                !
 ! D2    D(5,1,2,12)           177.4154         estimate D2E/DX2                !
 ! D3    D(2,1,5,4)              1.6572         estimate D2E/DX2                !
 ! D4    D(2,1,5,6)           -178.3428         estimate D2E/DX2                !
 ! D5    D(1,2,3,4)              5.6573         estimate D2E/DX2                !
 ! D6    D(1,2,3,28)          -174.3427         estimate D2E/DX2                !
 ! D7    D(12,2,3,4)          -176.7322         estimate D2E/DX2                !
 ! D8    D(12,2,3,28)            3.2678         estimate D2E/DX2                !
 ! D9    D(1,2,12,13)         -111.2408         estimate D2E/DX2                !
 ! D10   D(1,2,12,17)           68.7593         estimate D2E/DX2                !
 ! D11   D(3,2,12,13)           71.2848         estimate D2E/DX2                !
 ! D12   D(3,2,12,17)         -108.7152         estimate D2E/DX2                !
 ! D13   D(2,3,4,5)             -4.6805         estimate D2E/DX2                !
 ! D14   D(28,3,4,5)           175.3195         estimate D2E/DX2                !
 ! D15   D(2,3,28,29)          105.2449         estimate D2E/DX2                !
 ! D16   D(2,3,28,30)          -74.7551         estimate D2E/DX2                !
 ! D17   D(4,3,28,29)          -74.7551         estimate D2E/DX2                !
 ! D18   D(4,3,28,30)          105.2449         estimate D2E/DX2                !
 ! D19   D(3,4,5,1)              1.9596         estimate D2E/DX2                !
 ! D20   D(3,4,5,6)           -178.0404         estimate D2E/DX2                !
 ! D21   D(1,5,6,7)           -180.0            estimate D2E/DX2                !
 ! D22   D(1,5,6,11)             0.0            estimate D2E/DX2                !
 ! D23   D(4,5,6,7)              0.0            estimate D2E/DX2                !
 ! D24   D(4,5,6,11)           180.0            estimate D2E/DX2                !
 ! D25   D(5,6,7,8)           -179.9942         estimate D2E/DX2                !
 ! D26   D(5,6,7,18)             0.0058         estimate D2E/DX2                !
 ! D27   D(11,6,7,8)             0.0058         estimate D2E/DX2                !
 ! D28   D(11,6,7,18)         -179.9942         estimate D2E/DX2                !
 ! D29   D(5,6,11,10)          179.9988         estimate D2E/DX2                !
 ! D30   D(5,6,11,22)           -0.0012         estimate D2E/DX2                !
 ! D31   D(7,6,11,10)           -0.0012         estimate D2E/DX2                !
 ! D32   D(7,6,11,22)          179.9988         estimate D2E/DX2                !
 ! D33   D(6,7,8,9)             -0.0058         estimate D2E/DX2                !
 ! D34   D(6,7,8,19)           179.9942         estimate D2E/DX2                !
 ! D35   D(18,7,8,9)           179.9942         estimate D2E/DX2                !
 ! D36   D(18,7,8,19)           -0.0058         estimate D2E/DX2                !
 ! D37   D(7,8,9,10)             0.0012         estimate D2E/DX2                !
 ! D38   D(7,8,9,20)          -179.9987         estimate D2E/DX2                !
 ! D39   D(19,8,9,10)         -179.9988         estimate D2E/DX2                !
 ! D40   D(19,8,9,20)            0.0012         estimate D2E/DX2                !
 ! D41   D(8,9,10,11)            0.0034         estimate D2E/DX2                !
 ! D42   D(8,9,10,21)         -179.9966         estimate D2E/DX2                !
 ! D43   D(20,9,10,11)        -179.9967         estimate D2E/DX2                !
 ! D44   D(20,9,10,21)           0.0034         estimate D2E/DX2                !
 ! D45   D(9,10,11,6)           -0.0034         estimate D2E/DX2                !
 ! D46   D(9,10,11,22)         179.9966         estimate D2E/DX2                !
 ! D47   D(21,10,11,6)         179.9966         estimate D2E/DX2                !
 ! D48   D(21,10,11,22)         -0.0034         estimate D2E/DX2                !
 ! D49   D(2,12,13,14)        -179.9942         estimate D2E/DX2                !
 ! D50   D(2,12,13,23)           0.0058         estimate D2E/DX2                !
 ! D51   D(17,12,13,14)          0.0058         estimate D2E/DX2                !
 ! D52   D(17,12,13,23)       -179.9942         estimate D2E/DX2                !
 ! D53   D(2,12,17,16)         179.9988         estimate D2E/DX2                !
 ! D54   D(2,12,17,27)          -0.0013         estimate D2E/DX2                !
 ! D55   D(13,12,17,16)         -0.0012         estimate D2E/DX2                !
 ! D56   D(13,12,17,27)        179.9988         estimate D2E/DX2                !
 ! D57   D(12,13,14,15)         -0.0058         estimate D2E/DX2                !
 ! D58   D(12,13,14,24)        179.9942         estimate D2E/DX2                !
 ! D59   D(23,13,14,15)        179.9941         estimate D2E/DX2                !
 ! D60   D(23,13,14,24)         -0.0058         estimate D2E/DX2                !
 ! D61   D(13,14,15,16)          0.0013         estimate D2E/DX2                !
 ! D62   D(13,14,15,25)       -179.9988         estimate D2E/DX2                !
 ! D63   D(24,14,15,16)       -179.9988         estimate D2E/DX2                !
 ! D64   D(24,14,15,25)          0.0011         estimate D2E/DX2                !
 ! D65   D(14,15,16,17)          0.0033         estimate D2E/DX2                !
 ! D66   D(14,15,16,26)       -179.9967         estimate D2E/DX2                !
 ! D67   D(25,15,16,17)       -179.9966         estimate D2E/DX2                !
 ! D68   D(25,15,16,26)          0.0034         estimate D2E/DX2                !
 ! D69   D(15,16,17,12)         -0.0033         estimate D2E/DX2                !
 ! D70   D(15,16,17,27)        179.9967         estimate D2E/DX2                !
 ! D71   D(26,16,17,12)        179.9966         estimate D2E/DX2                !
 ! D72   D(26,16,17,27)         -0.0034         estimate D2E/DX2                !
 ! D73   D(3,28,29,31)         180.0            estimate D2E/DX2                !
 ! D74   D(3,28,29,34)           0.0            estimate D2E/DX2                !
 ! D75   D(30,28,29,31)          0.0            estimate D2E/DX2                !
 ! D76   D(30,28,29,34)        180.0            estimate D2E/DX2                !
 ! D77   D(3,28,30,32)         180.0            estimate D2E/DX2                !
 ! D78   D(3,28,30,35)           0.0            estimate D2E/DX2                !
 ! D79   D(29,28,30,32)          0.0            estimate D2E/DX2                !
 ! D80   D(29,28,30,35)        180.0            estimate D2E/DX2                !
 ! D81   D(28,29,31,33)          0.0            estimate D2E/DX2                !
 ! D82   D(28,29,31,36)        180.0            estimate D2E/DX2                !
 ! D83   D(34,29,31,33)        180.0            estimate D2E/DX2                !
 ! D84   D(34,29,31,36)          0.0            estimate D2E/DX2                !
 ! D85   D(28,30,32,33)          0.0            estimate D2E/DX2                !
 ! D86   D(28,30,32,37)        180.0            estimate D2E/DX2                !
 ! D87   D(35,30,32,33)        180.0            estimate D2E/DX2                !
 ! D88   D(35,30,32,37)          0.0            estimate D2E/DX2                !
 ! D89   D(29,31,33,32)          0.0            estimate D2E/DX2                !
 ! D90   D(29,31,33,38)        180.0            estimate D2E/DX2                !
 ! D91   D(36,31,33,32)        180.0            estimate D2E/DX2                !
 ! D92   D(36,31,33,38)          0.0            estimate D2E/DX2                !
 ! D93   D(30,32,33,31)          0.0            estimate D2E/DX2                !
 ! D94   D(30,32,33,38)       -180.0            estimate D2E/DX2                !
 ! D95   D(37,32,33,31)       -180.0            estimate D2E/DX2                !
 ! D96   D(37,32,33,38)          0.0            estimate D2E/DX2                !
 --------------------------------------------------------------------------------
 Trust Radius=3.00D-01 FncErr=1.00D-07 GrdErr=1.00D-06
 Number of steps in this run=    212 maximum allowed number of steps=    228.
 GradGradGradGradGradGradGradGradGradGradGradGradGradGradGradGradGradGrad

 Leave Link  103 at Sun Nov 14 23:28:59 2021, MaxMem=  6710886400 cpu:         0.1
 (Enter /usr/local/gqt/g09/l202.exe)
                          Input orientation:                          
 ---------------------------------------------------------------------
 Center     Atomic      Atomic             Coordinates (Angstroms)
 Number     Number       Type             X           Y           Z
 ---------------------------------------------------------------------
      1          8           0       -4.273649    0.108114   -0.880215
      2          6           0       -3.048514    0.852638   -1.119194
      3          7           0       -1.935893   -0.037080   -0.792184
      4          6           0       -2.481854   -1.259766   -0.512956
      5          6           0       -3.804727   -1.156861   -0.542385
      6          6           0       -4.617900   -2.182656   -0.270239
      7          6           0       -4.083200   -3.427256    0.062261
      8          6           0       -4.931600   -4.497456    0.346061
      9          6           0       -6.314600   -4.322956    0.297461
     10          6           0       -6.849300   -3.078356   -0.034939
     11          6           0       -6.000900   -2.008156   -0.318839
     12          6           0       -3.239297    2.267539   -1.569377
     13          6           0       -2.895808    2.638041   -2.869466
     14          6           0       -3.073475    3.956447   -3.288862
     15          6           0       -3.594719    4.904205   -2.408202
     16          6           0       -3.938294    4.533698   -1.108162
     17          6           0       -3.760540    3.215297   -0.688717
     18          1           0       -2.992513   -3.564823    0.100675
     19          1           0       -4.509968   -5.479042    0.608196
     20          1           0       -6.983625   -5.166937    0.521293
     21          1           0       -7.939989   -2.940758   -0.073203
     22          1           0       -6.422538   -1.026591   -0.581047
     23          1           0       -2.484828    1.890565   -3.563998
     24          1           0       -2.802514    4.248714   -4.314123
     25          1           0       -3.734835    5.943895   -2.738978
     26          1           0       -4.349415    5.281148   -0.413685
     27          1           0       -4.031434    2.923054    0.336568
     28          6           0       -0.508565    0.313711   -0.768089
     29          6           0        0.172629    0.486126    0.448701
     30          6           0        0.213311    0.486126   -1.961195
     31          6           0        1.526015    0.818746    0.471871
     32          6           0        1.566707    0.818746   -1.938672
     33          6           0        2.229582    0.986659   -0.721867
     34          1           0       -0.365098    0.357882    1.382974
     35          1           0       -0.292577    0.357882   -2.913085
     36          1           0        2.031769    0.946960    1.424647
     37          1           0        2.104331    0.946960   -2.873834
     38          1           0        3.284058    1.245815   -0.704067
 ---------------------------------------------------------------------
                    Distance matrix (angstroms):
                    1          2          3          4          5
     1  O    0.000000
     2  C    1.453404   0.000000
     3  N    2.343914   1.461663   0.000000
     4  C    2.283967   2.269555   1.367846   0.000000
     5  C    1.390748   2.223208   2.192909   1.327196   0.000000
     6  C    2.395455   3.520896   3.474059   2.339515   1.337000
     7  C    3.663792   4.558937   4.102962   2.755576   2.365975
     8  C    4.811229   5.858028   5.492251   4.149916   3.635760
     9  C    5.018644   6.281799   6.223274   4.972912   4.126616
    10  C    4.183546   5.574432   5.827894   4.755035   3.635804
    11  C    2.788752   4.188233   4.542409   3.602978   2.365978
    12  C    2.491575   1.496999   2.759377   3.759205   3.619522
    13  C    3.500871   2.504882   3.520342   4.573554   4.543426
    14  C    4.695920   3.787046   4.845178   5.938396   5.850110
    15  C    5.079191   4.286616   5.457061   6.544079   6.345226
    16  C    4.444121   3.787088   5.000146   6.003308   5.720175
    17  C    3.155082   2.504885   3.730684   4.657480   4.374830
    18  H    4.011723   4.583141   3.789276   2.439386   2.621354
    19  H    5.786841   6.723830   6.180767   4.813784   4.527963
    20  H    6.093797   7.376420   7.315754   6.049925   5.226616
    21  H    4.836211   6.277777   6.708014   5.728032   4.528003
    22  H    2.448424   3.899377   4.599315   3.948164   2.621335
    23  H    3.685065   2.715161   3.420541   4.385596   4.489887
    24  H    5.576785   4.669199   5.614545   6.700376   6.667134
    25  H    6.148306   5.386616   6.542038   7.643158   7.433078
    26  H    5.194581   4.669238   5.852512   6.803028   6.462291
    27  H    3.076218   2.715142   3.798390   4.540801   4.179672
    28  C    3.772360   2.620125   1.470000   2.536689   3.616381
    29  C    4.655996   3.601165   2.501881   3.319519   4.415996
    30  C    4.630790   3.388627   2.501881   3.522704   4.566952
    31  C    5.997435   4.843444   3.783527   4.620942   5.774820
    32  C    5.977883   4.687532   3.783527   4.769038   5.891090
    33  C    6.564216   5.294727   4.290008   5.223763   6.406230
    34  H    4.523404   3.702209   2.711956   3.269861   4.222855
    35  H    4.477039   3.325360   2.711956   3.629097   4.499985
    36  H    6.765674   5.682367   4.650270   5.384861   6.508453
    37  H    6.734746   5.444214   4.650270   5.610390   6.691687
    38  H    7.644889   6.358332   5.376009   6.289690   7.486646
                    6          7          8          9         10
     6  C    0.000000
     7  C    1.394808   0.000000
     8  C    2.415892   1.394867   0.000000
     9  C    2.789616   2.415935   1.394812   0.000000
    10  C    2.415945   2.789711   2.415901   1.394784   0.000000
    11  C    1.394812   2.415917   2.789643   2.415892   1.394887
    12  C    4.836583   5.983737   7.231732   7.508475   6.630627
    13  C    5.741141   6.840523   8.086988   8.376935   7.506120
    14  C    7.013267   8.171208   9.387959   9.587237   8.621678
    15  C    7.472709   8.703737   9.887590   9.992941   8.941250
    16  C    6.802455   8.047837   9.201259   9.277011   8.220044
    17  C    5.481614   6.692652   7.869480   8.020040   7.041160
    18  H    2.165605   1.099999   2.165659   3.413173   3.889710
    19  H    3.413130   2.165641   1.100000   2.165592   3.413120
    20  H    3.889616   3.413161   2.165576   1.100000   2.165550
    21  H    3.413183   3.889711   3.413136   2.165584   1.100000
    22  H    2.165596   3.413142   3.889644   3.413129   2.165664
    23  H    5.655968   6.632026   7.879217   8.257473   7.496202
    24  H    7.810963   8.928236  10.136361  10.347704   9.400736
    25  H    8.539046   9.787072  10.953152  11.012874   9.920320
    26  H    7.470009   8.725462   9.825337   9.828860   8.733509
    27  H    5.174981   6.356442   7.474915   7.597305   6.640430
    28  C    4.833874   5.240451   6.629623   7.506272   7.228316
    29  C    5.530682   5.794478   7.134408   8.076775   7.889672
    30  C    5.772549   6.153774   7.525266   8.416793   8.142264
    31  C    6.877996   7.046957   8.365322   9.377780   9.251495
    32  C    7.073997   7.345319   8.701149   9.672248   9.467881
    33  C    7.558872   7.742656   9.082870  10.111088   9.971074
    34  H    5.222430   5.467709   6.745550   7.647559   7.474161
    35  H    5.669867   6.127706   7.464374   8.275423   7.942423
    36  H    7.542229   7.640857   8.904690   9.935010   9.859358
    37  H    7.858854   8.126497   9.461169  10.426290  10.219100
    38  H    8.624590   8.757930  10.078937  11.142195  11.037714
                   11         12         13         14         15
    11  C    0.000000
    12  C    5.241361   0.000000
    13  C    6.142837   1.394808   0.000000
    14  C    7.277867   2.415893   1.394867   0.000000
    15  C    7.611562   2.789617   2.415935   1.394812   0.000000
    16  C    6.904580   2.415945   2.789710   2.415901   1.394784
    17  C    5.695655   1.394812   2.415916   2.789644   2.415892
    18  H    3.413151   6.071772   6.877980   8.250153   8.853336
    19  H    3.889643   8.146530   8.977009  10.309172  10.851182
    20  H    3.413132   8.582676   9.440613  10.632154  11.022456
    21  H    2.165675   7.173660   8.024079   9.032987   9.266986
    22  H    1.100001   4.686268   5.577115   6.586285   6.819780
    23  H    6.172021   2.165606   1.100000   2.165659   3.413173
    24  H    8.083340   3.413131   2.165642   1.100000   2.165593
    25  H    8.615523   3.889617   3.413161   2.165576   1.100000
    26  H    7.474647   3.413184   3.889711   3.413136   2.165583
    27  H    5.350251   2.165596   3.413142   3.889644   3.413128
    28  C    5.979853   3.452014   3.939190   5.118846   5.769484
    29  C    6.702464   4.345954   5.005625   6.045635   6.471030
    30  C    6.894577   3.904799   3.888742   4.960725   5.849814
    31  C    8.079049   5.382740   5.833257   6.718898   7.155956
    32  C    8.239169   5.033195   4.908182   5.761898   6.599375
    33  C    8.767679   5.680455   5.797315   6.597842   7.218959
    34  H    6.344807   4.541386   5.448565   6.489301   6.743331
    35  H    6.701732   3.759721   3.460901   4.563362   5.641640
    36  H    8.734771   6.204211   6.751308   7.572165   7.874508
    37  H    8.997526   5.656845   5.278367   6.003244   6.953831
    38  H    9.846175   6.659342   6.694623   7.378815   7.975303
                   16         17         18         19         20
    16  C    0.000000
    17  C    1.394887   0.000000
    18  H    8.242683   6.868991   0.000000
    19  H   10.174854   8.822424   2.494891   0.000000
    20  H   10.297159   9.061692   4.321188   2.494783   0.000000
    21  H    8.541206   7.466168   4.989710   4.321138   2.494781
    22  H    6.112784   5.009136   4.321162   4.989644   4.321162
    23  H    3.889710   3.413151   6.591573   8.707439   9.313276
    24  H    3.413121   3.889644   8.976519  11.035119  11.380572
    25  H    2.165551   3.413133   9.951402  11.928449  12.026413
    26  H    1.100001   2.165677   8.964204  10.809797  10.815532
    27  H    2.165663   1.100000   6.574766   8.420095   8.613798
    28  C    5.448576   4.358996   4.686979   7.173658   8.580583
    29  C    5.975479   4.920561   5.152614   7.585208   9.119998
    30  C    5.860574   4.985887   5.562266   8.030838   9.482391
    31  C    6.793824   5.919298   6.306390   8.724322  10.404076
    32  C    6.692955   5.973726   6.645381   9.114529  10.723246
    33  C    7.125546   6.391361   6.975876   9.433764  11.148784
    34  H    6.034147   4.897525   4.892363   7.200689   8.664354
    35  H    5.829789   5.013921   5.635603   8.015953   9.332133
    36  H    7.410901   6.569817   6.881315   9.206216  10.930375
    37  H    7.245385   6.657086   7.428439   9.857331  11.467239
    38  H    7.945806   7.314742   7.948911  10.377503  12.167588
                   21         22         23         24         25
    21  H    0.000000
    22  H    2.494915   0.000000
    23  H    8.079982   5.737016   0.000000
    24  H    9.801406   7.407379   2.494890   0.000000
    25  H   10.184633   7.776123   4.321188   2.494784   0.000000
    26  H    8.978190   6.641794   4.989711   4.321139   2.494780
    27  H    7.058966   4.707345   4.321162   4.989644   4.321162
    28  C    8.142512   6.066834   3.769508   5.772417   6.781754
    29  C    8.822159   6.844335   5.013610   6.759662   7.430802
    30  C    9.043469   6.944610   3.438223   5.365495   6.780859
    31  C   10.199814   8.227599   5.789982   7.307980   8.015812
    32  C   10.391877   8.311224   4.495043   6.041319   7.417142
    33  C   10.920877   8.884379   5.578568   6.990514   8.013563
    34  H    8.389306   6.516650   5.595972   7.316863   7.716810
    35  H    8.799368   6.703103   2.752956   4.837485   6.563764
    36  H   10.807120   8.910275   6.795337   8.197886   8.692459
    37  H   11.128623   9.047611   4.735725   6.087128   7.686573
    38  H   11.996025   9.969802   6.471086   7.687409   8.687788
                   26         27         28         29         30
    26  H    0.000000
    27  H    2.494915   0.000000
    28  C    6.289130   4.521011   0.000000
    29  C    6.647167   4.860590   1.405109   0.000000
    30  C    6.797462   5.407050   1.405109   2.410239   0.000000
    31  C    7.430876   5.944043   2.435585   1.393852   2.784535
    32  C    7.565654   6.398751   2.435585   2.784535   1.393852
    33  C    7.862621   6.638541   2.820008   2.419053   2.419053
    34  H    6.583412   4.595333   2.156295   1.085571   3.396243
    35  H    6.851531   5.578477   2.156295   3.396243   1.085571
    36  H    7.929953   6.469257   3.415024   2.149706   3.870798
    37  H    8.154039   7.201336   3.415024   3.870798   2.149706
    38  H    8.639336   7.577101   3.906009   3.403966   3.403966
                   31         32         33         34         35
    31  C    0.000000
    32  C    2.410886   0.000000
    33  C    1.395784   1.395784   0.000000
    34  H    2.149142   3.870090   3.399718   0.000000
    35  H    3.870090   2.149142   3.399718   4.296672   0.000000
    36  H    1.086281   3.397739   2.155975   2.468546   4.956361
    37  H    3.397739   1.086281   2.155975   4.956361   2.468546
    38  H    2.157761   2.157761   1.086000   4.296569   4.296569
                   36         37         38
    36  H    0.000000
    37  H    4.299093   0.000000
    38  H    2.487762   2.487762   0.000000
 Stoichiometry    C21H15NO
 Framework group  C1[X(C21H15NO)]
 Deg. of freedom   108
 Full point group                 C1      NOp   1
 Largest Abelian subgroup         C1      NOp   1
 Largest concise Abelian subgroup C1      NOp   1
                         Standard orientation:                         
 ---------------------------------------------------------------------
 Center     Atomic      Atomic             Coordinates (Angstroms)
 Number     Number       Type             X           Y           Z
 ---------------------------------------------------------------------
      1          8           0       -1.000510    1.128132    0.053680
      2          6           0        0.368012    0.643371   -0.013680
      3          7           0        0.304511   -0.816704   -0.038327
      4          6           0       -1.019912   -1.149327   -0.117506
      5          6           0       -1.746867   -0.041657   -0.039709
      6          6           0       -3.083801   -0.049707   -0.050229
      7          6           0       -3.773177   -1.258448   -0.146120
      8          6           0       -5.167975   -1.266797   -0.157214
      9          6           0       -5.873280   -0.066449   -0.072296
     10          6           0       -5.183925    1.142269    0.023691
     11          6           0       -3.789106    1.150641    0.034689
     12          6           0        1.422696    1.705613    0.003356
     13          6           0        2.188066    1.946783   -1.137493
     14          6           0        3.170869    2.936479   -1.121543
     15          6           0        3.388144    3.684997    0.035182
     16          6           0        2.622728    3.443903    1.175986
     17          6           0        1.639973    2.454130    1.160081
     18          1           0       -3.216926   -2.205080   -0.212992
     19          1           0       -5.711693   -2.220021   -0.232932
     20          1           0       -6.973225   -0.073069   -0.081026
     21          1           0       -5.740185    2.088886    0.090715
     22          1           0       -3.245392    2.103875    0.110332
     23          1           0        2.016631    1.356527   -2.049747
     24          1           0        3.774562    3.126652   -2.021204
     25          1           0        4.163182    4.465484    0.047720
     26          1           0        2.794068    4.034268    2.088188
     27          1           0        1.036334    2.263912    2.059768
     28          6           0        1.442113   -1.746336    0.012136
     29          6           0        1.736158   -2.465437    1.182932
     30          6           0        2.266336   -1.941067   -1.109054
     31          6           0        2.814760   -3.346983    1.231089
     32          6           0        3.345081   -2.822472   -1.061513
     33          6           0        3.624458   -3.529716    0.108943
     34          1           0        1.112791   -2.330785    2.061423
     35          1           0        2.057926   -1.396003   -2.024442
     36          1           0        3.022880   -3.892162    2.147316
     37          1           0        3.968548   -2.956854   -1.940852
     38          1           0        4.464891   -4.216505    0.146224
 ---------------------------------------------------------------------
 Rotational constants (GHZ):      0.3370572      0.1718791      0.1227767
 Leave Link  202 at Sun Nov 14 23:28:59 2021, MaxMem=  6710886400 cpu:         0.0
 (Enter /usr/local/gqt/g09/l301.exe)
 Standard basis: 6-311+G(d,p) (5D, 7F)
 Ernie: Thresh=  0.10000D-02 Tol=  0.10000D-05 Strict=F.
 There are   619 symmetry adapted cartesian basis functions of A   symmetry.
 There are   596 symmetry adapted basis functions of A   symmetry.
   596 basis functions,   948 primitive gaussians,   619 cartesian basis functions
    78 alpha electrons       78 beta electrons
       nuclear repulsion energy      1669.8005789219 Hartrees.
 IExCor= 5547 DFT=T Ex+Corr=N12SX ExCW=0 ScaHFX=  0.250000
 ScaDFX=  1.000000  1.000000  1.000000  1.000000 ScalE2=  1.000000  1.000000
 IRadAn=      0 IRanWt=     -1 IRanGd=            0 ICorTp=0 IEmpDi=  4
  HFx wShort=  0.110000 wLong=  0.000000 cFull=  0.000000 cShort=  1.000000 cLong=  0.000000
  DFx wShort=  0.110000 wLong=  0.000000 cFull=  0.000000 cShort=  1.000000 cLong=  0.000000
 NAtoms=   38 NActive=   38 NUniq=   38 SFac= 1.00D+00 NAtFMM=   60 NAOKFM=F Big=F
 Integral buffers will be    131072 words long.
 Raffenetti 2 integral format.
 Two-electron integral symmetry is turned on.
 ------------------------------------------------------------------------------
 Polarizable Continuum Model (PCM)
 =================================
 Model                : PCM (using non-symmetric T matrix).
 Atomic radii         : UFF (Universal Force Field).
 Polarization charges : Total charges.
 Charge compensation  : None.
 Solution method      : On-the-fly selection.
 Cavity type          : Scaled VdW (van der Waals Surface) (Alpha=1.100).
 Cavity algorithm     : GePol (No added spheres)
                        Default sphere list used, NSphG=   38.
                        Lebedev-Laikov grids with approx.  5.0 points / Ang**2.
                        Smoothing algorithm: Karplus/York (Gamma=1.0000).
                        Polarization charges: spherical gaussians, with
                                              point-specific exponents (IZeta= 3).
                        Self-potential: point-specific (ISelfS= 7).
                        Self-field    : sphere-specific E.n sum rule (ISelfD= 2).
 1st derivatives      : Analytical E(r).r(x)/FMM algorithm (CHGder, D1EAlg=3).
                        Cavity 1st derivative terms included.
 Solvent              : Water, Eps=  78.355300 Eps(inf)=   1.777849
 ------------------------------------------------------------------------------
 GePol: Number of generator spheres                  =      38
 GePol: Total number of spheres                      =      38
 GePol: Number of exposed spheres                    =      38 (100.00%)
 GePol: Number of points                             =    3018
 GePol: Average weight of points                     =       0.13
 GePol: Minimum weight of points                     =   0.10D-08
 GePol: Maximum weight of points                     =    0.20577
 GePol: Number of points with low weight             =     209
 GePol: Fraction of low-weight points (<1% of avg)   =       6.93%
 GePol: Cavity surface area                          =    392.604 Ang**2
 GePol: Cavity volume                                =    423.450 Ang**3
 Leave Link  301 at Sun Nov 14 23:28:59 2021, MaxMem=  6710886400 cpu:         0.7
 (Enter /usr/local/gqt/g09/l302.exe)
 NPDir=0 NMtPBC=     1 NCelOv=     1 NCel=       1 NClECP=     1 NCelD=      1
         NCelK=      1 NCelE2=     1 NClLst=     1 CellRange=     0.0.
 One-electron integrals computed using PRISM.
 NBasis=   596 RedAO= T EigKep=  1.02D-06  NBF=   596
 NBsUse=   593 1.00D-06 EigRej=  8.95D-07 NBFU=   593
 Precomputing XC quadrature grid using
 IXCGrd= 4 IRadAn=           0 IRanWt=          -1 IRanGd=           0 AccXCQ= 0.00D+00.
 Generated NRdTot=       0 NPtTot=           0 NUsed=           0 NTot=          32
 NSgBfM=   604   605   605   605   605 MxSgAt=    38 MxSgA2=    38.
 Leave Link  302 at Sun Nov 14 23:29:00 2021, MaxMem=  6710886400 cpu:        14.5
 (Enter /usr/local/gqt/g09/l303.exe)
 DipDrv:  MaxL=1.
 Leave Link  303 at Sun Nov 14 23:29:00 2021, MaxMem=  6710886400 cpu:         1.3
 (Enter /usr/local/gqt/g09/l401.exe)
 ExpMin= 4.38D-02 ExpMax= 8.59D+03 ExpMxC= 1.30D+03 IAcc=2 IRadAn=         4 AccDes= 0.00D+00
 Harris functional with IExCor= 5547 and IRadAn=       4 diagonalized for initial guess.
 HarFok:  IExCor= 5547 AccDes= 0.00D+00 IRadAn=         4 IDoV= 1 UseB2=F ITyADJ=14
 ICtDFT=  3500011 ScaDFX=  1.000000  1.000000  1.000000  1.000000
 FoFCou: FMM=F IPFlag=           0 FMFlag=      100000 FMFlg1=           0
         NFxFlg=           0 DoJE=T BraDBF=F KetDBF=T FulRan=T
         wScrn=  0.000000 ICntrl=     500 IOpCl=  0 I1Cent=   200000004 NGrid=           0
         NMat0=    1 NMatS0=      1 NMatT0=    0 NMatD0=    1 NMtDS0=    0 NMtDT0=    0
 Petite list used in FoFCou.
 Harris En= -909.610211276769    
 JPrj=0 DoOrth=F DoCkMO=F.
 Leave Link  401 at Sun Nov 14 23:29:02 2021, MaxMem=  6710886400 cpu:        37.2
 (Enter /usr/local/gqt/g09/l502.exe)
 Closed shell SCF:
 Using DIIS extrapolation, IDIIS=  1040.
 Integral symmetry usage will be decided dynamically.
 IVT=     1182521 IEndB=     1182521 NGot=  6710886400 MDV=  6710104300
 LenX=  6710104300 LenY=  6709720520
 Requested convergence on RMS density matrix=1.00D-08 within 128 cycles.
 Requested convergence on MAX density matrix=1.00D-06.
 Requested convergence on             energy=1.00D-06.
 No special actions if energy rises.
 Fock matrices will be formed incrementally for  20 cycles.

 Cycle   1  Pass 1  IDiag  1:
 FoFJK:  IHMeth= 1 ICntrl=       0 DoSepK=T KAlg= 0 I1Cent=   0 FoldK=F
 IRaf=         1 NMat=   1 IRICut=       1 DoRegI=T DoRafI=F ISym2E= 0.
 FoFCou: FMM=F IPFlag=           0 FMFlag=      100000 FMFlg1=           0
         NFxFlg=           0 DoJE=T BraDBF=F KetDBF=F FulRan=T
         wScrn=  0.000000 ICntrl=     500 IOpCl=  0 I1Cent=           0 NGrid=           0
         NMat0=    1 NMatS0=      1 NMatT0=    0 NMatD0=    1 NMtDS0=    0 NMtDT0=    0
 Symmetry not used in FoFCou.
 Inv3:  Mode=1 IEnd=    27324972.
 Iteration    1 A*A^-1 deviation from unit magnitude is 6.22D-15 for   3013.
 Iteration    1 A*A^-1 deviation from orthogonality  is 2.65D-15 for   1869   1032.
 Iteration    1 A^-1*A deviation from unit magnitude is 7.55D-15 for    566.
 Iteration    1 A^-1*A deviation from orthogonality  is 1.74D-11 for   3008   1660.
 E= -938.493125252684    
 DIIS: error= 5.62D-02 at cycle   1 NSaved=   1.
 NSaved= 1 IEnMin= 1 EnMin= -938.493125252684     IErMin= 1 ErrMin= 5.62D-02
 ErrMax= 5.62D-02  0.00D+00 EMaxC= 1.00D-01 BMatC= 2.43D+00 BMatP= 2.43D+00
 IDIUse=3 WtCom= 4.38D-01 WtEn= 5.62D-01
 Coeff-Com:  0.100D+01
 Coeff-En:   0.100D+01
 Coeff:      0.100D+01
 Gap=     0.165 Goal=   None    Shift=    0.000
 GapD=    0.165 DampG=1.000 DampE=0.500 DampFc=0.5000 IDamp=-1.
 Damping current iteration by 5.00D-01
 RMSDP=5.40D-02 MaxDP=8.09D+00              OVMax= 5.60D-01

 Cycle   2  Pass 1  IDiag  1:
 RMSU=  2.28D-02    CP:  8.55D-01
 E= -938.427197488250     Delta-E=        0.065927764434 Rises=F Damp=T
 DIIS: error= 2.72D-02 at cycle   2 NSaved=   2.
 NSaved= 2 IEnMin= 1 EnMin= -938.493125252684     IErMin= 2 ErrMin= 2.72D-02
 ErrMax= 2.72D-02  0.00D+00 EMaxC= 1.00D-01 BMatC= 6.02D-01 BMatP= 2.43D+00
 IDIUse=3 WtCom= 7.28D-01 WtEn= 2.72D-01
 Coeff-Com: -0.156D+00 0.116D+01
 Coeff-En:   0.555D+00 0.445D+00
 Coeff:      0.369D-01 0.963D+00
 Gap=     0.010 Goal=   None    Shift=    0.000
 RMSDP=3.55D-02 MaxDP=4.59D+00 DE= 6.59D-02 OVMax= 7.44D-01

 Cycle   3  Pass 1  IDiag  1:
 RMSU=  2.27D-02    CP:  6.96D-01  3.35D-02
 E= -938.180160883605     Delta-E=        0.247036604645 Rises=F Damp=F
 DIIS: error= 3.31D-02 at cycle   3 NSaved=   3.
 NSaved= 3 IEnMin= 1 EnMin= -938.493125252684     IErMin= 2 ErrMin= 2.72D-02
 ErrMax= 3.31D-02  0.00D+00 EMaxC= 1.00D-01 BMatC= 6.78D-01 BMatP= 6.02D-01
 IDIUse=2 WtCom= 0.00D+00 WtEn= 1.00D+00
 EnCoef did    53 forward-backward iterations
 Coeff-En:   0.334D+00 0.502D+00 0.163D+00
 Coeff:      0.334D+00 0.502D+00 0.163D+00
 Gap=     0.185 Goal=   None    Shift=    0.000
 RMSDP=3.33D-02 MaxDP=4.27D+00 DE= 2.47D-01 OVMax= 3.80D-01

 Cycle   4  Pass 1  IDiag  1:
 RMSU=  1.18D-02    CP:  6.44D-01  9.18D-01 -1.91D-02
 E= -938.901679056016     Delta-E=       -0.721518172411 Rises=F Damp=F
 DIIS: error= 8.50D-03 at cycle   4 NSaved=   4.
 NSaved= 4 IEnMin= 4 EnMin= -938.901679056016     IErMin= 4 ErrMin= 8.50D-03
 ErrMax= 8.50D-03  0.00D+00 EMaxC= 1.00D-01 BMatC= 3.57D-02 BMatP= 6.02D-01
 IDIUse=3 WtCom= 9.15D-01 WtEn= 8.50D-02
 Coeff-Com:  0.121D+00-0.158D+00 0.401D-01 0.998D+00
 Coeff-En:   0.000D+00 0.000D+00 0.000D+00 0.100D+01
 Coeff:      0.110D+00-0.145D+00 0.367D-01 0.998D+00
 Gap=     0.104 Goal=   None    Shift=    0.000
 RMSDP=4.79D-03 MaxDP=4.33D-01 DE=-7.22D-01 OVMax= 5.25D-02

 Cycle   5  Pass 1  IDiag  1:
 RMSU=  4.15D-03    CP:  6.63D-01  8.76D-01  2.82D-02  1.03D+00
 E= -938.898883325318     Delta-E=        0.002795730698 Rises=F Damp=F
 DIIS: error= 9.03D-03 at cycle   5 NSaved=   5.
 NSaved= 5 IEnMin= 4 EnMin= -938.901679056016     IErMin= 4 ErrMin= 8.50D-03
 ErrMax= 9.03D-03  0.00D+00 EMaxC= 1.00D-01 BMatC= 3.38D-02 BMatP= 3.57D-02
 IDIUse=3 WtCom= 9.10D-01 WtEn= 9.03D-02
 Coeff-Com:  0.831D-01-0.121D+00 0.253D-01 0.688D+00 0.325D+00
 Coeff-En:   0.000D+00 0.000D+00 0.000D+00 0.528D+00 0.472D+00
 Coeff:      0.756D-01-0.110D+00 0.231D-01 0.674D+00 0.338D+00
 Gap=     0.108 Goal=   None    Shift=    0.000
 RMSDP=3.72D-03 MaxDP=5.27D-01 DE= 2.80D-03 OVMax= 1.04D-01

 Cycle   6  Pass 1  IDiag  1:
 RMSU=  1.38D-03    CP:  6.47D-01  8.03D-01  2.79D-02  9.82D-01  4.01D-01
 E= -938.928639179940     Delta-E=       -0.029755854622 Rises=F Damp=F
 DIIS: error= 1.31D-03 at cycle   6 NSaved=   6.
 NSaved= 6 IEnMin= 6 EnMin= -938.928639179940     IErMin= 6 ErrMin= 1.31D-03
 ErrMax= 1.31D-03  0.00D+00 EMaxC= 1.00D-01 BMatC= 1.10D-03 BMatP= 3.38D-02
 IDIUse=3 WtCom= 9.87D-01 WtEn= 1.31D-02
 Coeff-Com:  0.452D-01-0.714D-01-0.579D-02 0.312D+00 0.183D+00 0.537D+00
 Coeff-En:   0.000D+00 0.000D+00 0.000D+00 0.000D+00 0.000D+00 0.100D+01
 Coeff:      0.446D-01-0.705D-01-0.571D-02 0.308D+00 0.180D+00 0.543D+00
 Gap=     0.108 Goal=   None    Shift=    0.000
 RMSDP=9.05D-04 MaxDP=1.00D-01 DE=-2.98D-02 OVMax= 1.91D-02

 Cycle   7  Pass 1  IDiag  1:
 RMSU=  3.67D-04    CP:  6.42D-01  8.30D-01  2.34D-02  9.95D-01  4.33D-01
                    CP:  8.54D-01
 E= -938.929450228713     Delta-E=       -0.000811048773 Rises=F Damp=F
 DIIS: error= 6.30D-04 at cycle   7 NSaved=   7.
 NSaved= 7 IEnMin= 7 EnMin= -938.929450228713     IErMin= 7 ErrMin= 6.30D-04
 ErrMax= 6.30D-04  0.00D+00 EMaxC= 1.00D-01 BMatC= 2.32D-04 BMatP= 1.10D-03
 IDIUse=3 WtCom= 9.94D-01 WtEn= 6.30D-03
 Coeff-Com:  0.671D-02-0.123D-01-0.201D-03 0.245D-01 0.196D-01 0.291D+00
 Coeff-Com:  0.670D+00
 Coeff-En:   0.000D+00 0.000D+00 0.000D+00 0.000D+00 0.000D+00 0.238D+00
 Coeff-En:   0.762D+00
 Coeff:      0.667D-02-0.122D-01-0.199D-03 0.244D-01 0.194D-01 0.291D+00
 Coeff:      0.671D+00
 Gap=     0.109 Goal=   None    Shift=    0.000
 RMSDP=3.70D-04 MaxDP=5.82D-02 DE=-8.11D-04 OVMax= 1.03D-02

 Cycle   8  Pass 1  IDiag  1:
 RMSU=  1.70D-04    CP:  6.42D-01  8.20D-01  2.93D-02  9.90D-01  4.11D-01
                    CP:  9.31D-01  7.10D-01
 E= -938.929698936822     Delta-E=       -0.000248708108 Rises=F Damp=F
 DIIS: error= 1.13D-04 at cycle   8 NSaved=   8.
 NSaved= 8 IEnMin= 8 EnMin= -938.929698936822     IErMin= 8 ErrMin= 1.13D-04
 ErrMax= 1.13D-04  0.00D+00 EMaxC= 1.00D-01 BMatC= 1.53D-05 BMatP= 2.32D-04
 IDIUse=3 WtCom= 9.99D-01 WtEn= 1.13D-03
 Coeff-Com:  0.688D-03-0.199D-02 0.632D-03-0.622D-02 0.215D-04 0.127D+00
 Coeff-Com:  0.375D+00 0.504D+00
 Coeff-En:   0.000D+00 0.000D+00 0.000D+00 0.000D+00 0.000D+00 0.000D+00
 Coeff-En:   0.000D+00 0.100D+01
 Coeff:      0.687D-03-0.199D-02 0.631D-03-0.621D-02 0.215D-04 0.127D+00
 Coeff:      0.375D+00 0.505D+00
 Gap=     0.108 Goal=   None    Shift=    0.000
 RMSDP=1.11D-04 MaxDP=1.03D-02 DE=-2.49D-04 OVMax= 1.81D-03

 Cycle   9  Pass 1  IDiag  1:
 RMSU=  8.21D-05    CP:  6.42D-01  8.18D-01  3.00D-02  9.87D-01  4.12D-01
                    CP:  9.44D-01  6.85D-01  1.06D+00
 E= -938.929710738510     Delta-E=       -0.000011801688 Rises=F Damp=F
 DIIS: error= 7.13D-05 at cycle   9 NSaved=   9.
 NSaved= 9 IEnMin= 9 EnMin= -938.929710738510     IErMin= 9 ErrMin= 7.13D-05
 ErrMax= 7.13D-05  0.00D+00 EMaxC= 1.00D-01 BMatC= 3.31D-06 BMatP= 1.53D-05
 IDIUse=1 WtCom= 1.00D+00 WtEn= 0.00D+00
 Coeff-Com: -0.238D-03 0.336D-04 0.223D-03-0.551D-02-0.105D-02 0.368D-01
 Coeff-Com:  0.139D+00 0.327D+00 0.504D+00
 Coeff:     -0.238D-03 0.336D-04 0.223D-03-0.551D-02-0.105D-02 0.368D-01
 Coeff:      0.139D+00 0.327D+00 0.504D+00
 Gap=     0.108 Goal=   None    Shift=    0.000
 RMSDP=4.31D-05 MaxDP=4.74D-03 DE=-1.18D-05 OVMax= 5.11D-04

 Cycle  10  Pass 1  IDiag  1:
 RMSU=  2.45D-05    CP:  6.42D-01  8.18D-01  3.01D-02  9.87D-01  4.12D-01
                    CP:  9.45D-01  7.20D-01  9.55D-01  7.16D-01
 E= -938.929713255591     Delta-E=       -0.000002517081 Rises=F Damp=F
 DIIS: error= 2.73D-05 at cycle  10 NSaved=  10.
 NSaved=10 IEnMin=10 EnMin= -938.929713255591     IErMin=10 ErrMin= 2.73D-05
 ErrMax= 2.73D-05  0.00D+00 EMaxC= 1.00D-01 BMatC= 5.02D-07 BMatP= 3.31D-06
 IDIUse=1 WtCom= 1.00D+00 WtEn= 0.00D+00
 Coeff-Com: -0.292D-03 0.429D-03 0.841D-04-0.248D-02 0.128D-03 0.823D-02
 Coeff-Com:  0.453D-01 0.141D+00 0.317D+00 0.490D+00
 Coeff:     -0.292D-03 0.429D-03 0.841D-04-0.248D-02 0.128D-03 0.823D-02
 Coeff:      0.453D-01 0.141D+00 0.317D+00 0.490D+00
 Gap=     0.108 Goal=   None    Shift=    0.000
 RMSDP=1.42D-05 MaxDP=1.49D-03 DE=-2.52D-06 OVMax= 1.56D-04

 Cycle  11  Pass 1  IDiag  1:
 RMSU=  9.14D-06    CP:  6.42D-01  8.19D-01  3.02D-02  9.87D-01  4.13D-01
                    CP:  9.49D-01  7.21D-01  9.61D-01  7.36D-01  8.86D-01
 E= -938.929713665038     Delta-E=       -0.000000409447 Rises=F Damp=F
 DIIS: error= 1.22D-05 at cycle  11 NSaved=  11.
 NSaved=11 IEnMin=11 EnMin= -938.929713665038     IErMin=11 ErrMin= 1.22D-05
 ErrMax= 1.22D-05  0.00D+00 EMaxC= 1.00D-01 BMatC= 7.88D-08 BMatP= 5.02D-07
 IDIUse=1 WtCom= 1.00D+00 WtEn= 0.00D+00
 Coeff-Com: -0.660D-04 0.139D-03-0.851D-04-0.998D-04 0.795D-03-0.968D-03
 Coeff-Com:  0.545D-02 0.187D-01 0.778D-01 0.210D+00 0.689D+00
 Coeff:     -0.660D-04 0.139D-03-0.851D-04-0.998D-04 0.795D-03-0.968D-03
 Coeff:      0.545D-02 0.187D-01 0.778D-01 0.210D+00 0.689D+00
 Gap=     0.108 Goal=   None    Shift=    0.000
 RMSDP=9.03D-06 MaxDP=1.48D-03 DE=-4.09D-07 OVMax= 7.77D-05

 Cycle  12  Pass 1  IDiag  1:
 RMSU=  2.96D-06    CP:  6.42D-01  8.19D-01  3.01D-02  9.87D-01  4.14D-01
                    CP:  9.48D-01  7.21D-01  9.65D-01  7.42D-01  8.86D-01
                    CP:  9.34D-01
 E= -938.929713737683     Delta-E=       -0.000000072645 Rises=F Damp=F
 DIIS: error= 4.17D-06 at cycle  12 NSaved=  12.
 NSaved=12 IEnMin=12 EnMin= -938.929713737683     IErMin=12 ErrMin= 4.17D-06
 ErrMax= 4.17D-06  0.00D+00 EMaxC= 1.00D-01 BMatC= 1.19D-08 BMatP= 7.88D-08
 IDIUse=1 WtCom= 1.00D+00 WtEn= 0.00D+00
 Coeff-Com: -0.197D-04 0.589D-04-0.525D-04 0.214D-03 0.568D-03-0.163D-02
 Coeff-Com: -0.834D-03-0.358D-02 0.104D-01 0.550D-01 0.379D+00 0.560D+00
 Coeff:     -0.197D-04 0.589D-04-0.525D-04 0.214D-03 0.568D-03-0.163D-02
 Coeff:     -0.834D-03-0.358D-02 0.104D-01 0.550D-01 0.379D+00 0.560D+00
 Gap=     0.108 Goal=   None    Shift=    0.000
 RMSDP=2.78D-06 MaxDP=4.23D-04 DE=-7.26D-08 OVMax= 3.49D-05

 Cycle  13  Pass 1  IDiag  1:
 RMSU=  1.04D-06    CP:  6.42D-01  8.19D-01  3.01D-02  9.87D-01  4.14D-01
                    CP:  9.48D-01  7.20D-01  9.66D-01  7.39D-01  8.99D-01
                    CP:  9.90D-01  9.62D-01
 E= -938.929713749340     Delta-E=       -0.000000011657 Rises=F Damp=F
 DIIS: error= 1.98D-06 at cycle  13 NSaved=  13.
 NSaved=13 IEnMin=13 EnMin= -938.929713749340     IErMin=13 ErrMin= 1.98D-06
 ErrMax= 1.98D-06  0.00D+00 EMaxC= 1.00D-01 BMatC= 1.71D-09 BMatP= 1.19D-08
 IDIUse=1 WtCom= 1.00D+00 WtEn= 0.00D+00
 Coeff-Com: -0.281D-05 0.119D-04-0.129D-04 0.102D-03 0.186D-03-0.623D-03
 Coeff-Com: -0.642D-03-0.445D-02-0.897D-02-0.172D-01 0.542D-01 0.270D+00
 Coeff-Com:  0.707D+00
 Coeff:     -0.281D-05 0.119D-04-0.129D-04 0.102D-03 0.186D-03-0.623D-03
 Coeff:     -0.642D-03-0.445D-02-0.897D-02-0.172D-01 0.542D-01 0.270D+00
 Coeff:      0.707D+00
 Gap=     0.108 Goal=   None    Shift=    0.000
 RMSDP=1.21D-06 MaxDP=1.92D-04 DE=-1.17D-08 OVMax= 1.08D-05

 Cycle  14  Pass 1  IDiag  1:
 RMSU=  3.15D-07    CP:  6.42D-01  8.19D-01  3.01D-02  9.87D-01  4.14D-01
                    CP:  9.48D-01  7.21D-01  9.65D-01  7.37D-01  9.05D-01
                    CP:  1.03D+00  1.02D+00  1.02D+00
 E= -938.929713750871     Delta-E=       -0.000000001531 Rises=F Damp=F
 DIIS: error= 4.28D-07 at cycle  14 NSaved=  14.
 NSaved=14 IEnMin=14 EnMin= -938.929713750871     IErMin=14 ErrMin= 4.28D-07
 ErrMax= 4.28D-07  0.00D+00 EMaxC= 1.00D-01 BMatC= 1.48D-10 BMatP= 1.71D-09
 IDIUse=1 WtCom= 1.00D+00 WtEn= 0.00D+00
 Coeff-Com: -0.793D-06 0.208D-05-0.264D-05 0.147D-04 0.424D-04-0.100D-03
 Coeff-Com:  0.738D-04-0.136D-02-0.476D-02-0.155D-01-0.139D-01 0.807D-01
 Coeff-Com:  0.382D+00 0.573D+00
 Coeff:     -0.793D-06 0.208D-05-0.264D-05 0.147D-04 0.424D-04-0.100D-03
 Coeff:      0.738D-04-0.136D-02-0.476D-02-0.155D-01-0.139D-01 0.807D-01
 Coeff:      0.382D+00 0.573D+00
 Gap=     0.108 Goal=   None    Shift=    0.000
 RMSDP=3.24D-07 MaxDP=3.47D-05 DE=-1.53D-09 OVMax= 2.93D-06

 Cycle  15  Pass 1  IDiag  1:
 RMSU=  1.17D-07    CP:  6.42D-01  8.19D-01  3.01D-02  9.87D-01  4.14D-01
                    CP:  9.48D-01  7.21D-01  9.65D-01  7.37D-01  9.06D-01
                    CP:  1.03D+00  1.04D+00  9.93D-01  6.76D-01
 E= -938.929713751043     Delta-E=       -0.000000000172 Rises=F Damp=F
 DIIS: error= 1.20D-07 at cycle  15 NSaved=  15.
 NSaved=15 IEnMin=15 EnMin= -938.929713751043     IErMin=15 ErrMin= 1.20D-07
 ErrMax= 1.20D-07  0.00D+00 EMaxC= 1.00D-01 BMatC= 8.75D-12 BMatP= 1.48D-10
 IDIUse=1 WtCom= 1.00D+00 WtEn= 0.00D+00
 Coeff-Com: -0.113D-06 0.211D-06-0.574D-06 0.231D-05 0.994D-05 0.105D-05
 Coeff-Com:  0.789D-04-0.332D-03-0.161D-02-0.646D-02-0.107D-01 0.182D-01
 Coeff-Com:  0.127D+00 0.274D+00 0.600D+00
 Coeff:     -0.113D-06 0.211D-06-0.574D-06 0.231D-05 0.994D-05 0.105D-05
 Coeff:      0.789D-04-0.332D-03-0.161D-02-0.646D-02-0.107D-01 0.182D-01
 Coeff:      0.127D+00 0.274D+00 0.600D+00
 Gap=     0.108 Goal=   None    Shift=    0.000
 RMSDP=7.78D-08 MaxDP=9.71D-06 DE=-1.72D-10 OVMax= 1.07D-06

 Cycle  16  Pass 1  IDiag  1:
 RMSU=  2.83D-08    CP:  6.42D-01  8.19D-01  3.01D-02  9.87D-01  4.14D-01
                    CP:  9.48D-01  7.21D-01  9.65D-01  7.37D-01  9.05D-01
                    CP:  1.03D+00  1.04D+00  1.00D+00  7.02D-01  7.31D-01
 E= -938.929713751066     Delta-E=       -0.000000000023 Rises=F Damp=F
 DIIS: error= 5.47D-08 at cycle  16 NSaved=  16.
 NSaved=16 IEnMin=16 EnMin= -938.929713751066     IErMin=16 ErrMin= 5.47D-08
 ErrMax= 5.47D-08  0.00D+00 EMaxC= 1.00D-01 BMatC= 1.10D-12 BMatP= 8.75D-12
 IDIUse=1 WtCom= 1.00D+00 WtEn= 0.00D+00
 Coeff-Com: -0.119D-06 0.103D-06 0.302D-07-0.137D-05 0.104D-06 0.189D-04
 Coeff-Com:  0.455D-04 0.489D-04-0.117D-03-0.132D-02-0.381D-02-0.139D-02
 Coeff-Com:  0.150D-01 0.684D-01 0.331D+00 0.592D+00
 Coeff:     -0.119D-06 0.103D-06 0.302D-07-0.137D-05 0.104D-06 0.189D-04
 Coeff:      0.455D-04 0.489D-04-0.117D-03-0.132D-02-0.381D-02-0.139D-02
 Coeff:      0.150D-01 0.684D-01 0.331D+00 0.592D+00
 Gap=     0.108 Goal=   None    Shift=    0.000
 RMSDP=2.52D-08 MaxDP=2.27D-06 DE=-2.27D-11 OVMax= 2.96D-07

 Cycle  17  Pass 1  IDiag  1:
 RMSU=  8.22D-09    CP:  6.42D-01  8.19D-01  3.01D-02  9.87D-01  4.14D-01
                    CP:  9.48D-01  7.21D-01  9.65D-01  7.37D-01  9.05D-01
                    CP:  1.03D+00  1.04D+00  1.01D+00  7.06D-01  7.47D-01
                    CP:  7.99D-01
 E= -938.929713751033     Delta-E=        0.000000000033 Rises=F Damp=F
 DIIS: error= 7.78D-09 at cycle  17 NSaved=  17.
 NSaved=17 IEnMin=16 EnMin= -938.929713751066     IErMin=17 ErrMin= 7.78D-09
 ErrMax= 7.78D-09  0.00D+00 EMaxC= 1.00D-01 BMatC= 4.34D-14 BMatP= 1.10D-12
 IDIUse=1 WtCom= 1.00D+00 WtEn= 0.00D+00
 Coeff-Com: -0.495D-07 0.406D-07 0.323D-07-0.739D-06-0.343D-06 0.102D-04
 Coeff-Com:  0.186D-04 0.452D-04 0.419D-04-0.244D-03-0.112D-02-0.166D-02
 Coeff-Com: -0.606D-03 0.158D-01 0.116D+00 0.261D+00 0.611D+00
 Coeff:     -0.495D-07 0.406D-07 0.323D-07-0.739D-06-0.343D-06 0.102D-04
 Coeff:      0.186D-04 0.452D-04 0.419D-04-0.244D-03-0.112D-02-0.166D-02
 Coeff:     -0.606D-03 0.158D-01 0.116D+00 0.261D+00 0.611D+00
 Gap=     0.108 Goal=   None    Shift=    0.000
 RMSDP=4.98D-09 MaxDP=3.43D-07 DE= 3.27D-11 OVMax= 8.15D-08

 Error on total polarization charges =  0.02118
 SCF Done:  E(RN12SX) =  -938.929713751     A.U. after   17 cycles
            NFock= 17  Conv=0.50D-08     -V/T= 2.0069
 KE= 9.325387472793D+02 PE=-5.520856595408D+03 EE= 1.979587555456D+03
 Leave Link  502 at Sun Nov 14 23:35:46 2021, MaxMem=  6710886400 cpu:      6413.3
 (Enter /usr/local/gqt/g09/l601.exe)
 Copying SCF densities to generalized density rwf, IOpCl= 0 IROHF=0.

 **********************************************************************

            Population analysis using the SCF density.

 **********************************************************************

 Orbital symmetries:
       Occupied  (A) (A) (A) (A) (A) (A) (A) (A) (A) (A) (A) (A)
                 (A) (A) (A) (A) (A) (A) (A) (A) (A) (A) (A) (A)
                 (A) (A) (A) (A) (A) (A) (A) (A) (A) (A) (A) (A)
                 (A) (A) (A) (A) (A) (A) (A) (A) (A) (A) (A) (A)
                 (A) (A) (A) (A) (A) (A) (A) (A) (A) (A) (A) (A)
                 (A) (A) (A) (A) (A) (A) (A) (A) (A) (A) (A) (A)
                 (A) (A) (A) (A) (A) (A)
       Virtual   (A) (A) (A) (A) (A) (A) (A) (A) (A) (A) (A) (A)
                 (A) (A) (A) (A) (A) (A) (A) (A) (A) (A) (A) (A)
                 (A) (A) (A) (A) (A) (A) (A) (A) (A) (A) (A) (A)
                 (A) (A) (A) (A) (A) (A) (A) (A) (A) (A) (A) (A)
                 (A) (A) (A) (A) (A) (A) (A) (A) (A) (A) (A) (A)
                 (A) (A) (A) (A) (A) (A) (A) (A) (A) (A) (A) (A)
                 (A) (A) (A) (A) (A) (A) (A) (A) (A) (A) (A) (A)
                 (A) (A) (A) (A) (A) (A) (A) (A) (A) (A) (A) (A)
                 (A) (A) (A) (A) (A) (A) (A) (A) (A) (A) (A) (A)
                 (A) (A) (A) (A) (A) (A) (A) (A) (A) (A) (A) (A)
                 (A) (A) (A) (A) (A) (A) (A) (A) (A) (A) (A) (A)
                 (A) (A) (A) (A) (A) (A) (A) (A) (A) (A) (A) (A)
                 (A) (A) (A) (A) (A) (A) (A) (A) (A) (A) (A) (A)
                 (A) (A) (A) (A) (A) (A) (A) (A) (A) (A) (A) (A)
                 (A) (A) (A) (A) (A) (A) (A) (A) (A) (A) (A) (A)
                 (A) (A) (A) (A) (A) (A) (A) (A) (A) (A) (A) (A)
                 (A) (A) (A) (A) (A) (A) (A) (A) (A) (A) (A) (A)
                 (A) (A) (A) (A) (A) (A) (A) (A) (A) (A) (A) (A)
                 (A) (A) (A) (A) (A) (A) (A) (A) (A) (A) (A) (A)
                 (A) (A) (A) (A) (A) (A) (A) (A) (A) (A) (A) (A)
                 (A) (A) (A) (A) (A) (A) (A) (A) (A) (A) (A) (A)
                 (A) (A) (A) (A) (A) (A) (A) (A) (A) (A) (A) (A)
                 (A) (A) (A) (A) (A) (A) (A) (A) (A) (A) (A) (A)
                 (A) (A) (A) (A) (A) (A) (A) (A) (A) (A) (A) (A)
                 (A) (A) (A) (A) (A) (A) (A) (A) (A) (A) (A) (A)
                 (A) (A) (A) (A) (A) (A) (A) (A) (A) (A) (A) (A)
                 (A) (A) (A) (A) (A) (A) (A) (A) (A) (A) (A) (A)
                 (A) (A) (A) (A) (A) (A) (A) (A) (A) (A) (A) (A)
                 (A) (A) (A) (A) (A) (A) (A) (A) (A) (A) (A) (A)
                 (A) (A) (A) (A) (A) (A) (A) (A) (A) (A) (A) (A)
                 (A) (A) (A) (A) (A) (A) (A) (A) (A) (A) (A) (A)
                 (A) (A) (A) (A) (A) (A) (A) (A) (A) (A) (A) (A)
                 (A) (A) (A) (A) (A) (A) (A) (A) (A) (A) (A) (A)
                 (A) (A) (A) (A) (A) (A) (A) (A) (A) (A) (A) (A)
                 (A) (A) (A) (A) (A) (A) (A) (A) (A) (A) (A) (A)
                 (A) (A) (A) (A) (A) (A) (A) (A) (A) (A) (A) (A)
                 (A) (A) (A) (A) (A) (A) (A) (A) (A) (A) (A) (A)
                 (A) (A) (A) (A) (A) (A) (A) (A) (A) (A) (A) (A)
                 (A) (A) (A) (A) (A) (A) (A) (A) (A) (A) (A) (A)
                 (A) (A) (A) (A) (A) (A) (A) (A) (A) (A) (A) (A)
                 (A) (A) (A) (A) (A) (A) (A) (A) (A) (A) (A) (A)
                 (A) (A) (A) (A) (A) (A) (A) (A) (A) (A) (A) (A)
                 (A) (A) (A) (A) (A) (A) (A) (A) (A) (A) (A)
 The electronic state is 1-A.
 Alpha  occ. eigenvalues --  -19.27355 -14.47319 -10.37555 -10.29823 -10.27351
 Alpha  occ. eigenvalues --  -10.26500 -10.25165 -10.25148 -10.24961 -10.24954
 Alpha  occ. eigenvalues --  -10.24599 -10.24475 -10.24460 -10.24350 -10.24329
 Alpha  occ. eigenvalues --  -10.24245 -10.23349 -10.23158 -10.23053 -10.22907
 Alpha  occ. eigenvalues --  -10.22831 -10.22642 -10.20277  -1.11519  -0.97298
 Alpha  occ. eigenvalues --   -0.88695  -0.87546  -0.87384  -0.81312  -0.78465
 Alpha  occ. eigenvalues --   -0.77447  -0.76636  -0.76559  -0.75032  -0.71776
 Alpha  occ. eigenvalues --   -0.67719  -0.64981  -0.62792  -0.62267  -0.61825
 Alpha  occ. eigenvalues --   -0.60849  -0.58418  -0.58024  -0.55511  -0.53027
 Alpha  occ. eigenvalues --   -0.52286  -0.49457  -0.49381  -0.48087  -0.47416
 Alpha  occ. eigenvalues --   -0.46569  -0.46048  -0.45584  -0.44622  -0.44307
 Alpha  occ. eigenvalues --   -0.43496  -0.43400  -0.43268  -0.41768  -0.41274
 Alpha  occ. eigenvalues --   -0.38821  -0.38434  -0.37921  -0.37429  -0.36817
 Alpha  occ. eigenvalues --   -0.36617  -0.35844  -0.35107  -0.34263  -0.34131
 Alpha  occ. eigenvalues --   -0.29746  -0.27688  -0.27044  -0.26828  -0.26669
 Alpha  occ. eigenvalues --   -0.25504  -0.20832  -0.20211
 Alpha virt. eigenvalues --   -0.09374  -0.04852  -0.04557  -0.04124  -0.03411
 Alpha virt. eigenvalues --   -0.03134  -0.01889  -0.01229  -0.00192  -0.00034
 Alpha virt. eigenvalues --    0.00735   0.01306   0.01479   0.02194   0.02391
 Alpha virt. eigenvalues --    0.03039   0.03135   0.03201   0.03686   0.04112
 Alpha virt. eigenvalues --    0.04331   0.04824   0.05129   0.05518   0.05798
 Alpha virt. eigenvalues --    0.06363   0.06741   0.07156   0.07332   0.07523
 Alpha virt. eigenvalues --    0.08033   0.08222   0.08334   0.09238   0.09384
 Alpha virt. eigenvalues --    0.09617   0.09691   0.10364   0.10727   0.11100
 Alpha virt. eigenvalues --    0.11442   0.11491   0.12253   0.12312   0.12778
 Alpha virt. eigenvalues --    0.13192   0.13327   0.13364   0.13658   0.13936
 Alpha virt. eigenvalues --    0.14297   0.14590   0.14848   0.15074   0.15280
 Alpha virt. eigenvalues --    0.15352   0.15658   0.15671   0.15934   0.16419
 Alpha virt. eigenvalues --    0.17015   0.17254   0.17480   0.17705   0.17983
 Alpha virt. eigenvalues --    0.18311   0.18680   0.18836   0.19146   0.19221
 Alpha virt. eigenvalues --    0.19380   0.19746   0.19911   0.20118   0.20319
 Alpha virt. eigenvalues --    0.20560   0.20687   0.20874   0.21059   0.21359
 Alpha virt. eigenvalues --    0.21389   0.21945   0.22376   0.22486   0.22779
 Alpha virt. eigenvalues --    0.22924   0.23294   0.23514   0.23984   0.24144
 Alpha virt. eigenvalues --    0.24297   0.24509   0.24694   0.25336   0.25535
 Alpha virt. eigenvalues --    0.26003   0.26332   0.26447   0.27126   0.27174
 Alpha virt. eigenvalues --    0.27372   0.27908   0.28216   0.28501   0.29373
 Alpha virt. eigenvalues --    0.29717   0.30286   0.30383   0.30652   0.31054
 Alpha virt. eigenvalues --    0.31197   0.31308   0.31703   0.31922   0.32191
 Alpha virt. eigenvalues --    0.32997   0.33375   0.34238   0.34474   0.34750
 Alpha virt. eigenvalues --    0.35679   0.36226   0.36296   0.37785   0.37903
 Alpha virt. eigenvalues --    0.39330   0.39981   0.40439   0.41057   0.41739
 Alpha virt. eigenvalues --    0.43810   0.44526   0.45267   0.46230   0.47145
 Alpha virt. eigenvalues --    0.48551   0.50189   0.50879   0.51196   0.51519
 Alpha virt. eigenvalues --    0.52053   0.52400   0.52739   0.52972   0.53228
 Alpha virt. eigenvalues --    0.53559   0.53896   0.54018   0.54517   0.54858
 Alpha virt. eigenvalues --    0.55164   0.55566   0.56338   0.56610   0.57457
 Alpha virt. eigenvalues --    0.57780   0.58141   0.58924   0.59727   0.59880
 Alpha virt. eigenvalues --    0.60636   0.61273   0.61628   0.62224   0.63077
 Alpha virt. eigenvalues --    0.63418   0.63993   0.65002   0.65188   0.65848
 Alpha virt. eigenvalues --    0.66609   0.67441   0.67949   0.68240   0.68543
 Alpha virt. eigenvalues --    0.68766   0.68935   0.69292   0.69725   0.69803
 Alpha virt. eigenvalues --    0.70493   0.70744   0.71296   0.71808   0.71874
 Alpha virt. eigenvalues --    0.72240   0.72990   0.73063   0.74116   0.75456
 Alpha virt. eigenvalues --    0.75932   0.76375   0.76616   0.77232   0.77354
 Alpha virt. eigenvalues --    0.78176   0.79121   0.79288   0.79738   0.81770
 Alpha virt. eigenvalues --    0.82173   0.82647   0.82915   0.83588   0.83956
 Alpha virt. eigenvalues --    0.83996   0.84286   0.84578   0.85197   0.85784
 Alpha virt. eigenvalues --    0.86213   0.87562   0.87751   0.88090   0.88853
 Alpha virt. eigenvalues --    0.89240   0.90475   0.91038   0.91936   0.93368
 Alpha virt. eigenvalues --    0.93759   0.94066   0.94953   0.96567   0.98011
 Alpha virt. eigenvalues --    0.98335   0.99255   0.99926   1.00441   1.01221
 Alpha virt. eigenvalues --    1.01895   1.02205   1.02787   1.03013   1.04123
 Alpha virt. eigenvalues --    1.04698   1.05208   1.05576   1.06422   1.06644
 Alpha virt. eigenvalues --    1.07206   1.07743   1.08996   1.09261   1.09757
 Alpha virt. eigenvalues --    1.10407   1.11071   1.11203   1.12154   1.13868
 Alpha virt. eigenvalues --    1.14681   1.15198   1.15753   1.17021   1.17996
 Alpha virt. eigenvalues --    1.20698   1.23085   1.26725   1.27357   1.28584
 Alpha virt. eigenvalues --    1.30923   1.31769   1.32260   1.34489   1.36279
 Alpha virt. eigenvalues --    1.38413   1.42802   1.45000   1.45872   1.48140
 Alpha virt. eigenvalues --    1.48557   1.49116   1.49542   1.50059   1.50695
 Alpha virt. eigenvalues --    1.51219   1.51981   1.52774   1.53126   1.54522
 Alpha virt. eigenvalues --    1.54820   1.55096   1.55589   1.55957   1.56407
 Alpha virt. eigenvalues --    1.56514   1.56778   1.57062   1.58386   1.58601
 Alpha virt. eigenvalues --    1.61391   1.62593   1.63921   1.64318   1.65024
 Alpha virt. eigenvalues --    1.65154   1.65434   1.66084   1.66331   1.67224
 Alpha virt. eigenvalues --    1.70310   1.71469   1.72249   1.72656   1.73207
 Alpha virt. eigenvalues --    1.73935   1.75362   1.75846   1.76029   1.76685
 Alpha virt. eigenvalues --    1.77183   1.78623   1.80439   1.81103   1.81372
 Alpha virt. eigenvalues --    1.82058   1.82565   1.83667   1.85234   1.85924
 Alpha virt. eigenvalues --    1.86898   1.88210   1.88495   1.89662   1.90238
 Alpha virt. eigenvalues --    1.91364   1.91656   1.92217   1.92712   1.92976
 Alpha virt. eigenvalues --    1.93441   1.94161   1.94415   1.94827   1.95125
 Alpha virt. eigenvalues --    1.96304   1.97765   1.97903   1.98733   1.99064
 Alpha virt. eigenvalues --    1.99915   2.00149   2.00564   2.02483   2.04479
 Alpha virt. eigenvalues --    2.05137   2.05366   2.06295   2.06946   2.07428
 Alpha virt. eigenvalues --    2.08439   2.09575   2.10215   2.11365   2.13447
 Alpha virt. eigenvalues --    2.18051   2.18678   2.24048   2.26727   2.28873
 Alpha virt. eigenvalues --    2.29938   2.31504   2.32566   2.33095   2.34185
 Alpha virt. eigenvalues --    2.36249   2.37541   2.37808   2.38861   2.39354
 Alpha virt. eigenvalues --    2.39606   2.40019   2.40581   2.41132   2.41535
 Alpha virt. eigenvalues --    2.43399   2.44134   2.44653   2.45693   2.54568
 Alpha virt. eigenvalues --    2.59121   2.60717   2.62265   2.62866   2.63904
 Alpha virt. eigenvalues --    2.64621   2.65191   2.65857   2.66519   2.67056
 Alpha virt. eigenvalues --    2.69230   2.69442   2.70212   2.70680   2.71631
 Alpha virt. eigenvalues --    2.71831   2.72467   2.73322   2.74201   2.74439
 Alpha virt. eigenvalues --    2.74970   2.75559   2.76611   2.77086   2.77305
 Alpha virt. eigenvalues --    2.77756   2.78512   2.79024   2.79109   2.79695
 Alpha virt. eigenvalues --    2.80044   2.82259   2.82653   2.83169   2.84279
 Alpha virt. eigenvalues --    2.84781   2.85305   2.86126   2.87090   2.87836
 Alpha virt. eigenvalues --    2.87940   2.89312   2.90105   2.90644   2.91446
 Alpha virt. eigenvalues --    2.91721   2.92156   2.92753   2.95109   2.96001
 Alpha virt. eigenvalues --    2.97331   2.98623   3.00984   3.05241   3.05796
 Alpha virt. eigenvalues --    3.07843   3.09719   3.10434   3.13718   3.16202
 Alpha virt. eigenvalues --    3.16933   3.20919   3.22705   3.26081   3.30743
 Alpha virt. eigenvalues --    3.31021   3.33783   3.35398   3.35917   3.36229
 Alpha virt. eigenvalues --    3.39168   3.42347   3.45921   3.48123   3.49065
 Alpha virt. eigenvalues --    3.49491   3.50566   3.52255   3.52915   3.55481
 Alpha virt. eigenvalues --    3.59598   3.60742   3.61578   3.66873   3.67964
 Alpha virt. eigenvalues --    3.80889   3.86364   3.92453   3.93543   3.95114
 Alpha virt. eigenvalues --    3.96945   3.97827   3.99484   4.00983   4.03637
 Alpha virt. eigenvalues --    4.04855   4.11782   4.12403   4.13552   4.15427
 Alpha virt. eigenvalues --    4.15777   4.19149   4.29636   4.43688   4.80166
 Alpha virt. eigenvalues --    4.82335   4.82850   4.85411   4.95469   5.00440
 Alpha virt. eigenvalues --    5.36878   5.67835  23.44241  23.49283  23.53387
 Alpha virt. eigenvalues --   23.59287  23.73306  23.81742  23.82407  23.82826
 Alpha virt. eigenvalues --   23.83188  23.84564  23.92355  23.93358  23.94323
 Alpha virt. eigenvalues --   23.95769  23.96407  23.97990  24.02760  24.05597
 Alpha virt. eigenvalues --   24.06066  24.08309  24.22221  35.30709  49.61278
          Condensed to atoms (all electrons):
               1          2          3          4          5          6
     1  O    8.176664   0.177701  -0.195446   0.286920  -0.142474  -0.365436
     2  C    0.177701  18.462305  -0.307744  -0.850148  -5.446054  -0.176250
     3  N   -0.195446  -0.307744   7.456220  -0.099151   0.319436   0.131492
     4  C    0.286920  -0.850148  -0.099151  16.789717  -3.298852  -2.748429
[...]
 3,-0.00000511,-0.00000143,0.00000186,0.00000617,0.00000046,0.00004205,
 -0.00000415,-0.00000967,0.00000229,0.00000340,-0.00000500,0.00000298,0
 .00000573,-0.00000805,-0.00000014,0.00000143,0.00000502,0.00000420,0.0
 0862699,-0.00619533,-0.00982038,-0.15541268,0.05712017,0.12814977,0.00
 020532,-0.00305652,-0.00110250,-0.01161495,0.01203764,0.02227453,-0.00
 064523,-0.00028633,-0.00061113,-0.00399631,-0.00376035,0.00041218,0.16
 150913,0.00018090,0.00001299,-0.00021037,-0.00046441,0.00051785,0.0002
 4210,0.00301128,-0.00137472,0.00263295,-0.00047129,-0.00039834,0.00005
 693,0.00002608,-0.00019369,-0.00002797,-0.00005940,-0.00000691,0.00002
 076,0.00001553,0.00001831,0.00000262,-0.00000259,-0.00000483,0.0000009
 1,0.00001243,0.00000898,-0.00000459,-0.00000830,0.00000442,0.00000530,
 0.00001227,-0.00000270,-0.00000702,-0.00003739,0.00013560,-0.00011913,
 0.00004104,0.00009426,-0.00008751,-0.00002639,-0.00004945,-0.00000695,
 -0.00002062,0.00001054,0.00003514,0.00000593,0.00003725,-0.00002930,0.
 00004778,-0.00006719,0.00000768,0.00000050,-0.00000132,-0.00000041,0.0
 0000004,0.00000240,-0.00000035,0.00000097,0.00000097,-0.00000041,0.000
 00209,-0.00000039,-0.00000017,-0.00000366,0.,-0.00000015,-0.00005729,0
 .00003215,0.00001913,-0.00000445,-0.00000644,-0.00000558,0.00000082,0.
 00000273,0.00000694,-0.00000147,-0.00000414,-0.00000232,-0.00000660,0.
 00000229,0.00000260,0.01229497,-0.00280317,-0.01494670,0.05587710,-0.0
 8445727,-0.08640363,-0.00335354,0.00112611,-0.00470327,-0.00645446,0.0
 0739134,0.00742063,-0.00040296,-0.00087998,0.00054920,-0.00355647,0.00
 408485,-0.00272255,-0.05850084,0.07928013,-0.00017229,-0.00002247,0.00
 014186,-0.00080008,-0.00058472,-0.00055928,-0.00037244,0.00270108,-0.0
 0079224,0.00025018,-0.00008621,0.00015111,-0.00005719,0.00023373,-0.00
 008857,-0.00003058,-0.00006109,0.00000451,0.00002155,0.00002086,-0.000
 00973,-0.00000922,-0.00000885,0.00000395,0.00002482,0.00000900,-0.0000
 0569,0.00000140,0.00001052,0.00000032,0.00001073,0.00001721,-0.0000073
 4,0.00010481,-0.00005640,0.00020416,0.00015077,0.00001692,-0.00004192,
 -0.00000644,0.00014346,0.00004640,0.00007786,-0.00002457,-0.00006659,-
 0.00001797,-0.00014306,0.00002800,-0.00016700,0.00019635,0.00012004,-0
 .00000067,-0.00000270,0.00000211,0.00000061,0.00000467,-0.00000083,0.0
 0000185,0.00000161,0.,0.00000498,0.00000120,-0.00000019,-0.00000217,-0
 .00000222,0.00000080,0.00003831,-0.00006214,-0.00005401,-0.00000642,-0
 .00001684,0.00000588,0.00000478,-0.00001412,-0.00000332,0.00000894,-0.
 00001389,-0.00000138,0.00000934,0.00000042,-0.00001067,0.01457499,-0.0
 0604565,-0.00982064,0.12689433,-0.08662032,-0.20792595,-0.00167099,-0.
 00478858,0.00084263,-0.00111353,-0.00106816,0.00312996,-0.00077760,0.0
 0051442,-0.00022202,0.00070815,-0.00261316,0.00379828,-0.13753031,0.09
 606820,0.21295440,0.00021468,-0.00000315,0.00012054,-0.00033344,0.0002
 6904,-0.00008700,0.00128551,0.00117334,-0.00086390,-0.00006190,-0.0000
 1512,-0.00009495,-0.00012268,0.00002598,-0.00006638,-0.00001533,-0.000
 04160,0.00002089,0.00001733,0.00002023,-0.00001596,-0.00000199,-0.0000
 0726,0.00000727,0.00002226,0.00000945,-0.00000708,-0.00000032,0.000008
 53,-0.00000383,0.00000824,0.00001622,-0.00000314,0.00000011,-0.0000234
 2,-0.00001036,0.00001951,0.00000334,0.00001525,0.00001438,-0.00001764,
 -0.00000196,-0.00000038,-0.00000941,0.00000531,-0.00000040,-0.00000715
 ,0.00000584,-0.00001903,-0.00000540,0.00000506,0.00000302,-0.00000744,
 0.00000671,0.00000074,0.00000488,-0.00000089,0.00000241,0.00000210,0.0
 0000089,0.00000507,0.00000113,-0.00000052,-0.00000505,-0.00000110,0.00
 000343,0.00001010,-0.00003620,-0.00000603,-0.00000173,-0.00000416,0.00
 000039,0.00000013,-0.00000258,-0.00000133,0.00000275,-0.00000334,0.000
 00090,-0.00000164,0.00000362,0.00000117,0.00926068,0.01213350,0.013038
 47,-0.00148380,0.00022219,0.00384942,-0.09954928,-0.07825431,-0.069938
 59,-0.00094563,0.00036116,0.00030017,-0.00578061,-0.01978343,-0.020163
 26,-0.00438403,-0.00247858,0.00243070,0.00043891,0.00055864,0.00069193
 ,0.10087426,-0.00003470,0.00008091,-0.00020620,0.00062809,-0.00000900,
 -0.00003931,-0.00023423,-0.00249555,0.00293075,-0.00016712,0.00043429,
 -0.00005326,0.00031098,-0.00014202,-0.00001465,-0.00000726,0.00003443,
 0.00004090,-0.00000931,-0.00000646,-0.00000577,0.00000289,0.00000572,0
 .00000187,-0.00001047,-0.00000202,0.00000031,-0.00000220,-0.00000557,0
 .00000074,-0.00000030,-0.00000912,-0.00000001,-0.00000587,0.00003492,0
 .00002766,0.00006067,-0.00000580,-0.00002654,-0.00002725,0.00002742,0.
 00002121,0.00000846,-0.00000043,-0.00001438,-0.00000757,-0.00000603,0.
 00000321,0.00000447,0.00000789,0.00000914,0.00000372,0.00000518,-0.000
 00276,-0.00000033,-0.00000205,0.00000036,-0.00000091,-0.00000058,0.000
 00008,-0.00000207,-0.00000089,-0.00000005,0.00000113,0.00000175,0.0000
 0142,-0.00005840,-0.00000370,-0.00002893,0.00000117,0.00000039,0.00000
 136,-0.00000227,0.00000191,0.00000178,-0.00000113,0.00000038,-0.000000
 96,-0.00000129,-0.00000073,0.00000030,-0.00682677,-0.00343572,-0.00680
 845,0.00073539,0.00341508,-0.00342914,-0.07713037,-0.17569453,-0.13633
 035,0.00049469,-0.00043013,0.00074059,-0.00122993,-0.00081283,-0.00537
 527,-0.00250863,0.00476562,-0.00217761,-0.00033556,-0.00003002,-0.0003
 9260,0.08520193,0.17710039,-0.00033588,0.00028525,-0.00017060,-0.00007
 634,-0.00033892,0.00009353,-0.00170842,0.00184699,-0.00063669,0.000024
 26,-0.00002086,0.00060094,0.00008760,0.00025227,0.00001608,0.00008190,
 0.00005008,-0.00002628,-0.00002244,-0.00004547,0.00001092,0.00000086,0
 .00001389,0.00000310,-0.00002402,-0.00001645,0.00000814,0.00000372,-0.
 00000541,-0.00000513,-0.00001641,-0.00000855,0.00001181,-0.00001191,0.
 00000567,-0.00000049,-0.00003522,-0.00001622,0.00002328,0.00002160,0.0
 0000503,0.00000360,-0.00000096,0.00000748,-0.00000516,0.00000856,-0.00
 000054,-0.00000369,0.00000268,0.00001995,-0.00000475,-0.00000653,0.000
 01634,-0.00000847,-0.00000031,-0.00000524,0.00000137,-0.00000320,-0.00
 000200,-0.00000101,-0.00000531,-0.00000038,0.00000083,0.00000315,0.000
 00190,0.00000010,0.00001795,-0.00000445,-0.00003273,0.00000016,0.00000
 230,-0.00000031,0.00000122,-0.00000182,-0.00000344,-0.00000092,0.00000
 196,0.00000001,0.00000542,-0.00000458,-0.00000286,-0.01031373,-0.01529
 023,-0.00961763,0.00427491,-0.00339549,0.00005114,-0.06845070,-0.13519
 587,-0.17420305,0.00037236,0.00083945,-0.00035559,0.00293728,0.0027664
 8,0.00610436,0.00212346,-0.00247013,0.00363606,-0.00042112,-0.00076060
 ,-0.00036450,0.07263654,0.14869307,0.17629485,-0.00036323,-0.00016851,
 0.00011227,0.00055167,-0.00043581,0.00000767,-0.00083217,-0.00105545,-
 0.00099695,-0.00019736,0.00015194,-0.00010909,-0.00015301,0.00003680,0
 .00007861,0.00002832,0.00006703,-0.00001082,-0.00001818,-0.00002336,0.
 00000523,0.00000527,0.00000432,0.,-0.00001728,-0.00001269,0.00000369,0
 .00000062,0.00000110,-0.00000059,-0.00002660,-0.00002297,0.00000332,-0
 .00002663,0.00003442,-0.00001871,-0.00003537,0.00000141,-0.00002853,-0
 .00000901,0.00000632,0.00002328,-0.00001459,0.00002571,0.00000460,0.00
 000555,0.00003175,-0.00001301,0.00004569,-0.00001092,-0.00001461,-0.00
 000043,0.00000567,-0.00000132,-0.00000089,-0.00000455,0.00000098,-0.00
 000182,-0.00000183,0.00000040,-0.00000513,-0.00000146,0.00000095,0.000
 00657,0.00000077,-0.00000058,-0.00000335,-0.00001853,0.00003348,0.0000
 0401,0.00000659,-0.00000472,-0.00000350,0.00000421,-0.00000144,-0.0000
 0472,0.00000653,-0.00000054,-0.00000095,-0.00000520,-0.00000215,-0.003
 51223,-0.00195542,0.00245085,-0.00729793,-0.02024034,-0.02086015,-0.00
 095217,0.00041460,0.00039398,-0.09785698,-0.07487689,-0.06840712,-0.00
 113019,0.00018714,0.00401813,0.01065456,0.01303255,0.01358512,0.000845
 58,0.00141661,-0.00065198,0.00003206,0.00014326,-0.00022577,0.09943762
 ,-0.00023038,-0.00011734,0.00008674,0.00022198,-0.00014569,0.00004001,
 -0.00019433,-0.00003580,-0.00032295,0.00001688,0.00017569,-0.00009733,
 -0.00005595,0.00003016,-0.00002686,0.00002365,0.00003566,0.00000185,-0
 .00001068,-0.00001238,0.00000468,0.00000212,0.00000203,-0.00000319,-0.
 00000985,-0.00000801,0.00000416,0.00000231,0.00000003,-0.00000326,-0.0
 0001428,-0.00000907,0.00000471,0.00003278,-0.00006113,0.00002132,0.000
 02452,-0.00001427,-0.00000818,-0.00002675,0.00002726,-0.00000531,0.000
 02367,0.00001176,-0.00001655,-0.00001069,-0.00001993,0.00001173,-0.000
 01425,0.00003637,-0.00000480,0.00000029,0.00000309,-0.00000069,-0.0000
 0055,-0.00000264,0.00000028,-0.00000102,-0.00000101,0.00000052,-0.0000
 0265,-0.00000084,0.00000002,0.00000379,0.00000046,0.00000030,-0.000007
 06,-0.00001631,0.00002832,0.00000052,0.00000521,-0.00000073,-0.0000001
 7,0.00000307,0.00000089,-0.00000213,0.00000365,0.00000082,-0.00000119,
 -0.00000273,-0.00000170,-0.00231579,0.00487567,-0.00221978,-0.00135163
 ,-0.00133274,-0.00619801,0.00036950,-0.00058140,0.00077810,-0.07526904
 ,-0.17141707,-0.13449436,0.00052118,0.00438828,-0.00408358,-0.00568498
 ,-0.00287914,-0.00629315,0.00102231,-0.00221631,0.00233167,0.00015401,
 -0.00053573,0.00038869,0.08196877,0.17219310,-0.00000751,0.00003323,-0
 .00003614,0.00011892,-0.00013379,-0.00002880,0.00013134,0.00005723,0.0
 0024305,-0.00007574,-0.00000950,0.00002297,-0.00001605,-0.00002127,0.0
 0001724,0.00000398,0.00001340,-0.00000937,-0.00000373,-0.00000583,0.00
 000239,0.00000117,0.00000147,-0.00000019,-0.00000416,-0.00000196,0.000
 00062,-0.00000072,-0.00000049,0.00000157,-0.00000379,-0.00000470,0.000
 00086,-0.00004566,0.00008165,-0.00001095,-0.00003736,0.00001439,-0.000
 03333,0.00000972,-0.00003149,0.00001155,-0.00003774,0.00001011,0.00002
 342,0.00001134,0.00004656,-0.00001850,0.00004302,-0.00004758,-0.000011
 20,-0.00000043,0.00000138,-0.00000070,-0.00000008,-0.00000091,0.000000
 27,-0.00000048,-0.00000039,-0.00000007,-0.00000118,-0.00000027,0.00000
 018,0.00000095,0.00000034,-0.00000011,0.00001910,-0.00000739,0.0000232
 6,0.00000242,0.00000144,-0.00000360,-0.00000205,0.00000196,0.00000087,
 -0.00000160,0.00000150,-0.00000139,-0.00000029,-0.00000054,0.00000150,
 0.00217776,-0.00215557,0.00370962,0.00310262,0.00224084,0.00546929,0.0
 0047874,0.00084745,-0.00046603,-0.06846976,-0.13478410,-0.17958877,0.0
 0434999,-0.00400113,0.00023090,-0.01046640,-0.01448543,-0.00955150,-0.
 00105746,0.00220187,-0.00111718,-0.00023544,0.00034982,-0.00033512,0.0
 7132867,0.14798122,0.18280112,-0.00051533,-0.00018300,-0.00004018,0.00
 047201,-0.00054808,0.00023743,-0.00123561,0.00083351,0.00105725,0.0000
 0399,0.00021751,-0.00007011,-0.00008871,0.00008631,-0.00002171,0.00003
 786,0.00005410,-0.00002071,-0.00002159,-0.00002436,0.00000685,0.000005
 01,0.00000374,-0.00000267,-0.00001859,-0.00001265,0.00000509,0.0000018
 5,-0.00000158,-0.00000043,-0.00002442,-0.00001690,0.00000811,-0.000023
 97,0.00004709,-0.00000552,-0.00004513,0.00002008,-0.00004352,-0.000018
 14,-0.00000612,0.00000982,-0.00002237,0.00003046,0.00001014,0.00000724
 ,0.00003701,-0.00001855,0.00004812,-0.00001081,-0.00001826,0.00000005,
 0.00000626,-0.00000133,-0.00000102,-0.00000485,0.00000116,-0.00000194,
 -0.00000188,0.00000067,-0.00000511,-0.00000136,0.00000056,0.00000779,0
 .00000017,-0.00000066,0.00000785,-0.00003089,0.00003875,0.00000261,0.0
 0000757,-0.00000517,-0.00000231,0.00000543,0.00000129,-0.00000510,0.00
 000712,-0.00000070,0.00000093,-0.00000563,-0.00000059,-0.00285250,-0.0
 0369747,0.00023317,-0.00065232,-0.00031652,-0.00067951,-0.01291120,0.0
 1201743,0.02276159,0.00052918,-0.00324190,-0.00097633,-0.15543607,0.05
 868182,0.12570789,0.01072268,-0.00592165,-0.01030636,-0.00002353,0.000
 26448,-0.00007715,0.00087160,0.00100715,-0.00113069,0.00034619,-0.0002
 6919,-0.00050257,0.16047301,-0.00006620,-0.00006824,-0.00005210,-0.000
 10570,-0.00006688,0.00005640,-0.00051527,0.00053501,0.00031121,0.00005
 993,-0.00000430,0.00007771,-0.00005924,0.00003198,-0.00001324,0.000009
 89,0.00000634,-0.00000849,-0.00000394,-0.00000399,0.00000097,0.0000004
 2,0.00000029,0.00000164,-0.00000235,-0.00000281,0.00000152,0.00000191,
 0.00000094,0.00000069,-0.00000527,-0.00000194,0.00000099,0.00001856,-0
 .00005580,0.00001860,0.00003583,-0.00003303,0.00004067,-0.00001477,0.0
 0003825,-0.00000066,0.00003189,-0.00000432,-0.00002302,-0.00000914,-0.
 00003280,0.00001643,-0.00002159,0.00003439,0.00000506,-0.00000010,0.00
 000055,-0.00000101,-0.00000016,-0.00000070,0.00000024,-0.00000024,-0.0
 0000033,-0.00000034,-0.00000057,-0.00000011,0.00000017,0.00000078,-0.0
 0000031,-0.00000079,-0.00001513,-0.00000230,-0.00001165,0.00000051,0.0
 0000028,0.00000156,0.00000097,-0.00000037,-0.00000071,0.00000009,0.000
 00022,0.00000048,-0.00000097,-0.00000087,-0.00000257,-0.00340356,0.004
 12330,-0.00269682,-0.00044157,-0.00103366,0.00044918,-0.00683023,0.007
 08600,0.00705313,-0.00356499,0.00182396,-0.00531258,0.05889984,-0.0883
 0199,-0.08791329,0.01311660,-0.00304392,-0.01474386,0.00026967,-0.0004
 8485,0.00041659,0.00144283,-0.00212884,0.00224080,0.00063494,-0.000290
 35,-0.00068028,-0.06040869,0.08369726,0.00008826,0.00004909,-0.0000265
 3,-0.00008589,0.00012910,-0.00001772,0.00002272,-0.00021283,0.00009539
 ,0.00004286,-0.00002660,-0.00010477,0.00007586,-0.00000961,0.00002234,
 -0.00001794,-0.00002717,0.00001055,0.00000863,0.00001178,-0.00000301,-
 0.00000172,-0.00000276,-0.00000047,0.00000827,0.00000682,-0.00000288,-
 0.00000194,-0.00000048,-0.00000049,0.00001177,0.00000829,-0.00000154,-
 0.00001213,0.00003494,-0.00002044,-0.00003146,0.00002576,-0.00000986,0
 .00002817,-0.00003483,-0.00000487,-0.00002490,-0.00000381,0.00001951,0
 .00000896,0.00001921,-0.00001318,0.00000906,-0.00002484,0.00000226,0.0
 0000040,-0.00000275,0.00000149,0.00000037,0.00000214,-0.00000058,0.000
 00091,0.00000087,0.00000015,0.00000216,0.00000052,-0.00000035,-0.00000
 233,-0.00000038,0.00000072,-0.00000043,0.00002554,-0.00001853,-0.00000
 113,-0.00000272,-0.00000033,0.00000071,-0.00000219,-0.00000041,0.00000
 134,-0.00000212,-0.00000063,0.00000155,0.00000153,0.00000127,0.0005913
 7,-0.00276966,0.00398844,-0.00071189,0.00053141,-0.00023793,-0.0011841
 6,-0.00150346,0.00266925,-0.00132546,-0.00541882,0.00115674,0.12592684
 ,-0.08781697,-0.20538753,0.01335081,-0.00607404,-0.00953648,-0.0000580
 4,0.00042244,-0.00036223,-0.00069239,0.00232606,-0.00123390,0.00062413
 ,-0.00023617,-0.00058084,-0.13576083,0.09818984,0.21044074,-0.00017477
 ,-0.00004601,0.00003232,0.00018114,-0.00016698,0.00001205,-0.00025554,
 0.00021662,-0.00025325,-0.00001748,0.00007227,0.00001278,-0.00004165,0
 .00004000,0.00000550,0.00002223,0.00002725,-0.00001030,-0.00001011,-0.
 00001326,0.00000425,0.00000168,0.00000272,-0.00000053,-0.00001026,-0.0
 0000711,0.00000227,0.00000148,-0.00000080,0.00000051,-0.00001148,-0.00
 000864,0.00000159,-0.00000685,0.00000116,-0.00000051,-0.00001035,-0.00
 000262,-0.00002687,-0.00001416,-0.00000373,0.00000776,-0.00000540,0.00
 001319,0.00000334,-0.00000229,0.00001486,-0.00000348,0.00001839,-0.000
 00322,-0.00000609,-0.00000050,0.00000336,-0.00000129,-0.00000035,-0.00
 000246,0.00000053,-0.00000108,-0.00000099,0.00000018,-0.00000259,-0.00
 000052,0.00000038,0.00000315,0.00000043,-0.00000027,0.00001303,-0.0000
 2708,0.00003693,0.00000093,0.00000476,-0.00000289,-0.00000240,0.000003
 57,0.00000045,-0.00000246,0.00000352,0.00000006,-0.00000102,-0.0000018
 1,0.00000032,0.00070430,0.00044043,-0.00003533,0.00049844,0.00041113,0
 .00370300,0.00155410,-0.00250700,-0.00052939,-0.01202463,-0.00666403,-
 0.00117961,-0.00613566,-0.00112946,0.00309306,-0.32293730,-0.08398925,
 0.02288424,-0.00064470,-0.00033732,-0.00011630,-0.00037651,-0.00000005
 ,0.00018625,0.00050004,0.00108428,-0.00080953,0.00036701,0.00094499,-0
 .00089251,0.33882363,-0.00003504,0.00000197,-0.00005971,0.00013535,0.0
 0000865,0.00008254,0.00022712,-0.00055548,0.00073299,-0.00010429,0.000
 00874,-0.00001480,0.00004316,-0.00005186,-0.00000579,-0.00000299,0.000
 01382,0.00000954,-0.00000361,-0.00000311,-0.00000138,0.00000131,0.0000
 0150,0.00000104,-0.00000364,-0.00000085,0.00000029,-0.00000154,-0.0000
 0177,-0.00000086,-0.00000134,-0.00000424,0.00000296,-0.00001062,0.0000
 2178,-0.00000787,-0.00000145,0.00000249,-0.00000025,-0.00000631,0.0000
 0225,-0.00000061,-0.00000174,0.00000373,-0.00000195,0.00000219,0.00000
 402,-0.00000238,0.00000513,-0.00000580,-0.00000711,0.00000024,0.000001
 84,-0.00000050,-0.00000021,-0.00000091,0.00000021,-0.00000041,-0.00000
 030,0.00000005,-0.00000102,-0.00000046,-0.00000009,0.00000094,0.000000
 43,0.,0.00000642,-0.00000943,0.00000246,0.00000148,0.00000003,0.000000
 78,0.00000016,0.00000095,0.00000076,-0.00000067,0.00000088,0.00000035,
 -0.00000007,-0.00000073,0.00000018,0.00037953,-0.00081243,-0.00040196,
 0.00009689,0.00366834,-0.00488218,-0.00220072,0.00181704,-0.00601016,0
 .01244282,0.00708195,-0.00154416,-0.02028045,-0.00166229,0.00223999,-0
 .08398292,-0.07190273,-0.00317582,0.00055159,0.00021857,-0.00006017,-0
 .00091082,-0.00015855,0.00014560,0.00065146,-0.00209159,0.00248676,0.0
 0137631,-0.00181604,0.00238689,0.09162777,0.06621962,-0.00003639,0.000
 00163,0.00002128,-0.00012149,-0.00006188,-0.00004845,-0.00023294,0.000
 61960,-0.00030733,0.00006793,-0.00000128,0.00007252,-0.00003644,0.0000
 6539,-0.00000770,0.00000856,-0.00000457,-0.00000908,0.00000209,-0.0000
 0097,0.00000232,-0.00000128,-0.00000031,-0.00000045,0.00000084,-0.0000
 0137,-0.00000005,0.00000143,0.00000177,0.00000060,-0.00000162,0.000001
 64,-0.00000153,0.00001040,-0.00002157,0.00001147,0.00001674,0.00000236
 ,0.00000664,-0.00000320,0.00001166,0.00000510,0.00000906,-0.00000094,-
 0.00000768,-0.00000343,-0.00001395,0.00000459,-0.00001481,0.00001847,0
 .00001033,-0.00000050,0.00000013,-0.00000048,0.00000011,0.00000019,-0.
 00000003,0.00000002,0.00000002,-0.00000008,0.00000024,0.00000023,0.000
 00010,-0.00000013,-0.00000020,0.00000005,0.00000858,-0.00001389,-0.000
 00486,-0.00000046,-0.00000030,0.00000044,-0.00000005,-0.00000084,-0.00
 000037,0.00000067,-0.00000075,0.00000010,0.00000039,0.00000013,-0.0000
 0089,0.00006323,-0.00043368,-0.00123901,0.00351479,-0.00495675,-0.0003
 6193,-0.00038875,-0.00585817,0.00029105,0.02265987,0.00701930,0.002509
 36,-0.02064188,-0.00619553,0.00543410,0.02284707,-0.00326718,-0.053387
 58,0.00106236,0.00034357,0.00001993,-0.00094786,-0.00024441,0.00015127
 ,-0.00132729,0.00233058,-0.00076689,-0.00039623,0.00257749,-0.00084332
 ,-0.02611960,0.00808437,0.04844645\\-0.00003731,-0.00007882,0.00001678
 ,-0.00000251,0.00004398,-0.00000060,0.00002980,-0.00003748,0.00000243,
 0.00005459,0.00002812,0.00000621,-0.00002125,0.00010301,-0.00002606,-0
 .00003226,-0.00004216,0.00000619,0.00000720,0.00000598,0.00000277,-0.0
 0000161,-0.00000219,0.00000062,0.00000310,0.00000088,-0.00000266,-0.00
 000278,-0.00000587,-0.00000301,0.00000720,0.00000550,-0.00000512,0.000
 01300,-0.00000538,-0.00001316,-0.00001052,-0.00000609,0.00000632,-0.00
 000215,-0.00000147,-0.00000316,-0.00000147,-0.00000238,-0.00000667,-0.
 00000176,-0.00000502,-0.00000723,-0.00000626,0.00000157,-0.00000136,-0
 .00000094,0.00000091,0.00000374,0.00000117,-0.00000028,0.00000295,0.00
 000074,-0.00000197,-0.00000227,-0.00000002,-0.00000364,-0.00000729,-0.
 00000036,-0.00000239,-0.00000597,0.00000770,-0.00000685,-0.00000192,0.
 00000123,-0.00000198,-0.00000282,0.00000080,-0.00000210,-0.00000944,-0
 .00000514,-0.00000333,-0.00001095,-0.00000406,-0.00000113,-0.00000592,
 0.00000008,-0.00001221,-0.00000800,-0.00000837,0.00000476,0.00000147,0
 .00000316,0.00000871,0.00000669,0.00000274,0.00000258,0.00000536,0.000
 00013,-0.00000268,0.00001128,0.00000050,0.00000639,0.00001113,-0.00000
 217,0.00000289,0.00000312,0.00000747,-0.00000284,0.00000952,-0.0000037
 4,0.00000428,0.00000847,0.00000432,0.00000317,0.00000894,-0.00000023,0
 .00000555,0.00000962\\\@


 DON'T WORRY CHARLIE BROWN...WE LEARN MORE FROM LOSING  THAN WE DO FROM WINNING.
 THEN THAT MAKES ME THE SMARTEST PERSON IN THE WORLD...
 CHARLES SCHULZ 'PEANUTS'
 Job cpu time:       3 days 15 hours 38 minutes 31.8 seconds.
 File lengths (MBytes):  RWF=   3022 Int=      0 D2E=      0 Chk=     36 Scr=      1
 Normal termination of Gaussian 09 at Mon Nov 15 07:03:03 2021.
