 Entering Gaussian System, Link 0=g09
 Input=NHC16.gjf
 Output=NHC16.log
 Initial command:
 /usr/local/gqt/g09/l1.exe "/usr/local/gqt/lixogaussian/Gau-22645.inp" -scrdir="/usr/local/gqt/lixogaussian/"
 Entering Link 1 = /usr/local/gqt/g09/l1.exe PID=     22647.
  
 Copyright (c) 1988,1990,1992,1993,1995,1998,2003,2009,2013,
            Gaussian, Inc.  All Rights Reserved.
  
 This is part of the Gaussian(R) 09 program.  It is based on
 the Gaussian(R) 03 system (copyright 2003, Gaussian, Inc.),
 the Gaussian(R) 98 system (copyright 1998, Gaussian, Inc.),
 the Gaussian(R) 94 system (copyright 1995, Gaussian, Inc.),
 the Gaussian 92(TM) system (copyright 1992, Gaussian, Inc.),
 the Gaussian 90(TM) system (copyright 1990, Gaussian, Inc.),
 the Gaussian 88(TM) system (copyright 1988, Gaussian, Inc.),
 the Gaussian 86(TM) system (copyright 1986, Carnegie Mellon
 University), and the Gaussian 82(TM) system (copyright 1983,
 Carnegie Mellon University). Gaussian is a federally registered
 trademark of Gaussian, Inc.
  
 This software contains proprietary and confidential information,
 including trade secrets, belonging to Gaussian, Inc.
  
 This software is provided under written license and may be
 used, copied, transmitted, or stored only in accord with that
 written license.
  
 The following legend is applicable only to US Government
 contracts under FAR:
  
                    RESTRICTED RIGHTS LEGEND
  
 Use, reproduction and disclosure by the US Government is
 subject to restrictions as set forth in subparagraphs (a)
 and (c) of the Commercial Computer Software - Restricted
 Rights clause in FAR 52.227-19.
  
 Gaussian, Inc.
 340 Quinnipiac St., Bldg. 40, Wallingford CT 06492
  
  
 ---------------------------------------------------------------
 Warning -- This program may not be used in any manner that
 competes with the business of Gaussian, Inc. or will provide
 assistance to any competitor of Gaussian, Inc.  The licensee
 of this program is prohibited from giving any competitor of
 Gaussian, Inc. access to this program.  By using this program,
 the user acknowledges that Gaussian, Inc. is engaged in the
 business of creating and licensing software in the field of
 computational chemistry and represents and warrants to the
 licensee that it is not a competitor of Gaussian, Inc. and that
 it will not use this program in any manner prohibited above.
 ---------------------------------------------------------------
  

 Cite this work as:
 Gaussian 09, Revision D.01,
 M. J. Frisch, G. W. Trucks, H. B. Schlegel, G. E. Scuseria, 
 M. A. Robb, J. R. Cheeseman, G. Scalmani, V. Barone, B. Mennucci, 
 G. A. Petersson, H. Nakatsuji, M. Caricato, X. Li, H. P. Hratchian, 
 A. F. Izmaylov, J. Bloino, G. Zheng, J. L. Sonnenberg, M. Hada, 
 M. Ehara, K. Toyota, R. Fukuda, J. Hasegawa, M. Ishida, T. Nakajima, 
 Y. Honda, O. Kitao, H. Nakai, T. Vreven, J. A. Montgomery, Jr., 
 J. E. Peralta, F. Ogliaro, M. Bearpark, J. J. Heyd, E. Brothers, 
 K. N. Kudin, V. N. Staroverov, T. Keith, R. Kobayashi, J. Normand, 
 K. Raghavachari, A. Rendell, J. C. Burant, S. S. Iyengar, J. Tomasi, 
 M. Cossi, N. Rega, J. M. Millam, M. Klene, J. E. Knox, J. B. Cross, 
 V. Bakken, C. Adamo, J. Jaramillo, R. Gomperts, R. E. Stratmann, 
 O. Yazyev, A. J. Austin, R. Cammi, C. Pomelli, J. W. Ochterski, 
 R. L. Martin, K. Morokuma, V. G. Zakrzewski, G. A. Voth, 
 P. Salvador, J. J. Dannenberg, S. Dapprich, A. D. Daniels, 
 O. Farkas, J. B. Foresman, J. V. Ortiz, J. Cioslowski, 
 and D. J. Fox, Gaussian, Inc., Wallingford CT, 2013.
 
 ******************************************
 Gaussian 09:  ES64L-G09RevD.01 24-Apr-2013
                20-Jun-2021 
 ******************************************
 %nprocshared=16
 Will use up to   16 processors via shared memory.
 %mem=25GB
 %chk=NHC16.chk
 ----------------------------------------------------------
 #p opt freq n12sx/6-311+g(d,p) scrf=(iefpcm,solvent=water)
 ----------------------------------------------------------
 1/14=-1,18=20,19=15,26=3,38=1/1,3;
 2/9=110,12=2,17=6,18=5,40=1/2;
 3/5=4,6=6,7=111,11=2,16=1,25=1,30=1,70=2201,71=1,72=1,74=-69/1,2,3;
 4//1;
 5/5=2,38=5,53=1/2;
 6/7=2,8=2,9=2,10=2,28=1/1;
 7//1,2,3,16;
 1/14=-1,18=20,19=15,26=3/3(2);
 2/9=110/2;
 99//99;
 2/9=110/2;
 3/5=4,6=6,7=111,11=2,16=1,25=1,30=1,70=2205,71=1,72=1,74=-69/1,2,3;
 4/5=5,16=3,69=1/1;
 5/5=2,38=5,53=1/2;
 7//1,2,3,16;
 1/14=-1,18=20,19=15,26=3/3(-5);
 2/9=110/2;
 6/7=2,8=2,9=2,10=2,19=2,28=1/1;
 99/9=1/99;
 Leave Link    1 at Sun Jun 20 19:34:22 2021, MaxMem=  3355443200 cpu:         0.7
 (Enter /usr/local/gqt/g09/l101.exe)
 -----
 TITLE
 -----
 Symbolic Z-matrix:
 Charge =  0 Multiplicity = 1
 6                    -2.90422   1.01965  -1.46066 
 6                    -4.32855   1.27918  -1.005 
 7                    -4.69345  -0.0164   -0.4149 
 6                    -3.62773  -0.79341  -0.16431 
 7                    -2.56023  -0.1899   -0.69894 
 6                    -6.01288  -0.21133   0.20747 
 6                    -5.99981  -1.47394   1.05912 
 6                    -7.06761  -0.36716  -0.88645 
 6                    -6.35059   0.99612   1.08542 
 6                    -1.20307  -0.75129  -0.76616 
 6                    -0.8634   -1.10237  -2.21681 
 6                    -1.10885  -2.00778   0.08652 
 6                    -0.20482   0.28123  -0.23796 
 1                    -2.85603   0.82133  -2.53211 
 1                    -2.23655   1.84653  -1.23887 
 1                    -4.37769   2.07127  -0.25485 
 1                    -4.98152   1.55093  -1.8281 
 1                    -5.2748   -1.39587   1.86213 
 1                    -6.98823  -1.6276    1.48854 
 1                    -5.74571  -2.34359   0.45597 
 1                    -7.17973   0.53837  -1.47897 
 1                    -8.03239  -0.58348  -0.43311 
 1                    -6.81389  -1.18839  -1.55502 
 1                    -7.33255   0.87587   1.54038 
 1                    -5.61357   1.0998    1.87963 
 1                    -6.36511   1.91824   0.50631 
 1                    -0.86702  -0.22195  -2.85657 
 1                     0.12948  -1.54478  -2.27082 
 1                    -1.57995  -1.81978  -2.61347 
 1                    -1.36701  -1.80059   1.12194 
 1                    -0.08641  -2.37952   0.04893 
 1                    -1.77665  -2.78369  -0.27566 
 1                    -0.19356   1.18421  -0.84467 
 1                    -0.44703   0.55718   0.78685 
 1                     0.80062  -0.13479  -0.25205 
 
 NAtoms=     35 NQM=       35 NQMF=       0 NMMI=      0 NMMIF=      0
                NMic=       0 NMicF=      0.
                    Isotopes and Nuclear Properties:
 (Nuclear quadrupole moments (NQMom) in fm**2, nuclear magnetic moments (NMagM)
  in nuclear magnetons)

  Atom         1           2           3           4           5           6           7           8           9          10
 IAtWgt=          12          12          14          12          14          12          12          12          12          12
 AtmWgt=  12.0000000  12.0000000  14.0030740  12.0000000  14.0030740  12.0000000  12.0000000  12.0000000  12.0000000  12.0000000
 NucSpn=           0           0           2           0           2           0           0           0           0           0
 AtZEff=   0.0000000   0.0000000   0.0000000   0.0000000   0.0000000   0.0000000   0.0000000   0.0000000   0.0000000   0.0000000
 NQMom=    0.0000000   0.0000000   2.0440000   0.0000000   2.0440000   0.0000000   0.0000000   0.0000000   0.0000000   0.0000000
 NMagM=    0.0000000   0.0000000   0.4037610   0.0000000   0.4037610   0.0000000   0.0000000   0.0000000   0.0000000   0.0000000
 AtZNuc=   6.0000000   6.0000000   7.0000000   6.0000000   7.0000000   6.0000000   6.0000000   6.0000000   6.0000000   6.0000000

  Atom        11          12          13          14          15          16          17          18          19          20
 IAtWgt=          12          12          12           1           1           1           1           1           1           1
 AtmWgt=  12.0000000  12.0000000  12.0000000   1.0078250   1.0078250   1.0078250   1.0078250   1.0078250   1.0078250   1.0078250
 NucSpn=           0           0           0           1           1           1           1           1           1           1
 AtZEff=   0.0000000   0.0000000   0.0000000   0.0000000   0.0000000   0.0000000   0.0000000   0.0000000   0.0000000   0.0000000
 NQMom=    0.0000000   0.0000000   0.0000000   0.0000000   0.0000000   0.0000000   0.0000000   0.0000000   0.0000000   0.0000000
 NMagM=    0.0000000   0.0000000   0.0000000   2.7928460   2.7928460   2.7928460   2.7928460   2.7928460   2.7928460   2.7928460
 AtZNuc=   6.0000000   6.0000000   6.0000000   1.0000000   1.0000000   1.0000000   1.0000000   1.0000000   1.0000000   1.0000000

  Atom        21          22          23          24          25          26          27          28          29          30
 IAtWgt=           1           1           1           1           1           1           1           1           1           1
 AtmWgt=   1.0078250   1.0078250   1.0078250   1.0078250   1.0078250   1.0078250   1.0078250   1.0078250   1.0078250   1.0078250
 NucSpn=           1           1           1           1           1           1           1           1           1           1
 AtZEff=   0.0000000   0.0000000   0.0000000   0.0000000   0.0000000   0.0000000   0.0000000   0.0000000   0.0000000   0.0000000
 NQMom=    0.0000000   0.0000000   0.0000000   0.0000000   0.0000000   0.0000000   0.0000000   0.0000000   0.0000000   0.0000000
 NMagM=    2.7928460   2.7928460   2.7928460   2.7928460   2.7928460   2.7928460   2.7928460   2.7928460   2.7928460   2.7928460
 AtZNuc=   1.0000000   1.0000000   1.0000000   1.0000000   1.0000000   1.0000000   1.0000000   1.0000000   1.0000000   1.0000000

  Atom        31          32          33          34          35
 IAtWgt=           1           1           1           1           1
 AtmWgt=   1.0078250   1.0078250   1.0078250   1.0078250   1.0078250
 NucSpn=           1           1           1           1           1
 AtZEff=   0.0000000   0.0000000   0.0000000   0.0000000   0.0000000
 NQMom=    0.0000000   0.0000000   0.0000000   0.0000000   0.0000000
 NMagM=    2.7928460   2.7928460   2.7928460   2.7928460   2.7928460
 AtZNuc=   1.0000000   1.0000000   1.0000000   1.0000000   1.0000000
 Leave Link  101 at Sun Jun 20 19:34:22 2021, MaxMem=  3355443200 cpu:         6.9
 (Enter /usr/local/gqt/g09/l103.exe)

 GradGradGradGradGradGradGradGradGradGradGradGradGradGradGradGradGradGrad
 Berny optimization.
 Initialization pass.
                           ----------------------------
                           !    Initial Parameters    !
                           ! (Angstroms and Degrees)  !
 --------------------------                            --------------------------
 ! Name  Definition              Value          Derivative Info.                !
 --------------------------------------------------------------------------------
 ! R1    R(1,2)                  1.5178         estimate D2E/DX2                !
 ! R2    R(1,5)                  1.4702         estimate D2E/DX2                !
 ! R3    R(1,14)                 1.0907         estimate D2E/DX2                !
 ! R4    R(1,15)                 1.0857         estimate D2E/DX2                !
 ! R5    R(2,3)                  1.4697         estimate D2E/DX2                !
 ! R6    R(2,16)                 1.092          estimate D2E/DX2                !
 ! R7    R(2,17)                 1.0852         estimate D2E/DX2                !
 ! R8    R(3,4)                  1.3425         estimate D2E/DX2                !
 ! R9    R(3,6)                  1.4718         estimate D2E/DX2                !
 ! R10   R(4,5)                  1.3378         estimate D2E/DX2                !
 ! R11   R(5,10)                 1.4702         estimate D2E/DX2                !
 ! R12   R(6,7)                  1.523          estimate D2E/DX2                !
 ! R13   R(6,8)                  1.5275         estimate D2E/DX2                !
 ! R14   R(6,9)                  1.5306         estimate D2E/DX2                !
 ! R15   R(7,18)                 1.0847         estimate D2E/DX2                !
 ! R16   R(7,19)                 1.0886         estimate D2E/DX2                !
 ! R17   R(7,20)                 1.0884         estimate D2E/DX2                !
 ! R18   R(8,21)                 1.088          estimate D2E/DX2                !
 ! R19   R(8,22)                 1.0877         estimate D2E/DX2                !
 ! R20   R(8,23)                 1.0889         estimate D2E/DX2                !
 ! R21   R(9,24)                 1.0889         estimate D2E/DX2                !
 ! R22   R(9,25)                 1.0884         estimate D2E/DX2                !
 ! R23   R(9,26)                 1.089          estimate D2E/DX2                !
 ! R24   R(10,11)                1.5307         estimate D2E/DX2                !
 ! R25   R(10,12)                1.5214         estimate D2E/DX2                !
 ! R26   R(10,13)                1.5302         estimate D2E/DX2                !
 ! R27   R(11,27)                1.0883         estimate D2E/DX2                !
 ! R28   R(11,28)                1.0883         estimate D2E/DX2                !
 ! R29   R(11,29)                1.0888         estimate D2E/DX2                !
 ! R30   R(12,30)                1.087          estimate D2E/DX2                !
 ! R31   R(12,31)                1.0886         estimate D2E/DX2                !
 ! R32   R(12,32)                1.0859         estimate D2E/DX2                !
 ! R33   R(13,33)                1.0879         estimate D2E/DX2                !
 ! R34   R(13,34)                1.0886         estimate D2E/DX2                !
 ! R35   R(13,35)                1.0882         estimate D2E/DX2                !
 ! A1    A(2,1,5)              101.8116         estimate D2E/DX2                !
 ! A2    A(2,1,14)             111.5589         estimate D2E/DX2                !
 ! A3    A(2,1,15)             112.6779         estimate D2E/DX2                !
 ! A4    A(5,1,14)             110.4276         estimate D2E/DX2                !
 ! A5    A(5,1,15)             112.1397         estimate D2E/DX2                !
 ! A6    A(14,1,15)            108.1791         estimate D2E/DX2                !
 ! A7    A(1,2,3)              101.7013         estimate D2E/DX2                !
 ! A8    A(1,2,16)             111.8682         estimate D2E/DX2                !
 ! A9    A(1,2,17)             112.3184         estimate D2E/DX2                !
 ! A10   A(3,2,16)             110.6366         estimate D2E/DX2                !
 ! A11   A(3,2,17)             112.0798         estimate D2E/DX2                !
 ! A12   A(16,2,17)            108.1974         estimate D2E/DX2                !
 ! A13   A(2,3,4)              112.8342         estimate D2E/DX2                !
 ! A14   A(2,3,6)              120.6056         estimate D2E/DX2                !
 ! A15   A(4,3,6)              123.7839         estimate D2E/DX2                !
 ! A16   A(3,4,5)              107.323          estimate D2E/DX2                !
 ! A17   A(1,5,4)              113.0479         estimate D2E/DX2                !
 ! A18   A(1,5,10)             120.4261         estimate D2E/DX2                !
 ! A19   A(4,5,10)             125.6351         estimate D2E/DX2                !
 ! A20   A(3,6,7)              109.7891         estimate D2E/DX2                !
 ! A21   A(3,6,8)              109.2494         estimate D2E/DX2                !
 ! A22   A(3,6,9)              109.625          estimate D2E/DX2                !
 ! A23   A(7,6,8)              108.7713         estimate D2E/DX2                !
 ! A24   A(7,6,9)              109.5801         estimate D2E/DX2                !
 ! A25   A(8,6,9)              109.8096         estimate D2E/DX2                !
 ! A26   A(6,7,18)             111.1023         estimate D2E/DX2                !
 ! A27   A(6,7,19)             109.2579         estimate D2E/DX2                !
 ! A28   A(6,7,20)             110.7638         estimate D2E/DX2                !
 ! A29   A(18,7,19)            108.9671         estimate D2E/DX2                !
 ! A30   A(18,7,20)            108.1616         estimate D2E/DX2                !
 ! A31   A(19,7,20)            108.5298         estimate D2E/DX2                !
 ! A32   A(6,8,21)             112.1025         estimate D2E/DX2                !
 ! A33   A(6,8,22)             109.5272         estimate D2E/DX2                !
 ! A34   A(6,8,23)             110.8385         estimate D2E/DX2                !
 ! A35   A(21,8,22)            107.5245         estimate D2E/DX2                !
 ! A36   A(21,8,23)            108.5019         estimate D2E/DX2                !
 ! A37   A(22,8,23)            108.2146         estimate D2E/DX2                !
 ! A38   A(6,9,24)             110.5798         estimate D2E/DX2                !
 ! A39   A(6,9,25)             110.1377         estimate D2E/DX2                !
 ! A40   A(6,9,26)             111.4632         estimate D2E/DX2                !
 ! A41   A(24,9,25)            108.4375         estimate D2E/DX2                !
 ! A42   A(24,9,26)            107.6788         estimate D2E/DX2                !
 ! A43   A(25,9,26)            108.4458         estimate D2E/DX2                !
 ! A44   A(5,10,11)            109.6182         estimate D2E/DX2                !
 ! A45   A(5,10,12)            110.2972         estimate D2E/DX2                !
 ! A46   A(5,10,13)            109.1936         estimate D2E/DX2                !
 ! A47   A(11,10,12)           109.1462         estimate D2E/DX2                !
 ! A48   A(11,10,13)           109.702          estimate D2E/DX2                !
 ! A49   A(12,10,13)           108.8686         estimate D2E/DX2                !
 ! A50   A(10,11,27)           111.7657         estimate D2E/DX2                !
 ! A51   A(10,11,28)           110.042          estimate D2E/DX2                !
 ! A52   A(10,11,29)           110.5084         estimate D2E/DX2                !
 ! A53   A(27,11,28)           107.6213         estimate D2E/DX2                !
 ! A54   A(27,11,29)           108.4628         estimate D2E/DX2                !
 ! A55   A(28,11,29)           108.329          estimate D2E/DX2                !
 ! A56   A(10,12,30)           111.2057         estimate D2E/DX2                !
 ! A57   A(10,12,31)           108.7136         estimate D2E/DX2                !
 ! A58   A(10,12,32)           111.4139         estimate D2E/DX2                !
 ! A59   A(30,12,31)           108.7262         estimate D2E/DX2                !
 ! A60   A(30,12,32)           107.9286         estimate D2E/DX2                !
 ! A61   A(31,12,32)           108.7891         estimate D2E/DX2                !
 ! A62   A(10,13,33)           111.9809         estimate D2E/DX2                !
 ! A63   A(10,13,34)           110.5396         estimate D2E/DX2                !
 ! A64   A(10,13,35)           109.8963         estimate D2E/DX2                !
 ! A65   A(33,13,34)           108.4754         estimate D2E/DX2                !
 ! A66   A(33,13,35)           107.4887         estimate D2E/DX2                !
 ! A67   A(34,13,35)           108.3409         estimate D2E/DX2                !
 ! D1    D(5,1,2,3)            -16.9804         estimate D2E/DX2                !
 ! D2    D(5,1,2,16)           101.1157         estimate D2E/DX2                !
 ! D3    D(5,1,2,17)          -136.9792         estimate D2E/DX2                !
 ! D4    D(14,1,2,3)           100.7958         estimate D2E/DX2                !
 ! D5    D(14,1,2,16)         -141.1081         estimate D2E/DX2                !
 ! D6    D(14,1,2,17)          -19.203          estimate D2E/DX2                !
 ! D7    D(15,1,2,3)          -137.2893         estimate D2E/DX2                !
 ! D8    D(15,1,2,16)          -19.1932         estimate D2E/DX2                !
 ! D9    D(15,1,2,17)          102.7119         estimate D2E/DX2                !
 ! D10   D(2,1,5,4)             14.5483         estimate D2E/DX2                !
 ! D11   D(2,1,5,10)          -175.6629         estimate D2E/DX2                !
 ! D12   D(14,1,5,4)          -104.0382         estimate D2E/DX2                !
 ! D13   D(14,1,5,10)           65.7506         estimate D2E/DX2                !
 ! D14   D(15,1,5,4)           135.234          estimate D2E/DX2                !
 ! D15   D(15,1,5,10)          -54.9771         estimate D2E/DX2                !
 ! D16   D(1,2,3,4)             16.2141         estimate D2E/DX2                !
 ! D17   D(1,2,3,6)            178.0324         estimate D2E/DX2                !
 ! D18   D(16,2,3,4)          -102.763          estimate D2E/DX2                !
 ! D19   D(16,2,3,6)            59.0554         estimate D2E/DX2                !
 ! D20   D(17,2,3,4)           136.381          estimate D2E/DX2                !
 ! D21   D(17,2,3,6)           -61.8007         estimate D2E/DX2                !
 ! D22   D(2,3,4,5)             -7.7252         estimate D2E/DX2                !
 ! D23   D(6,3,4,5)           -168.8732         estimate D2E/DX2                !
 ! D24   D(2,3,6,7)           -164.6121         estimate D2E/DX2                !
 ! D25   D(2,3,6,8)             76.1862         estimate D2E/DX2                !
 ! D26   D(2,3,6,9)            -44.1864         estimate D2E/DX2                !
 ! D27   D(4,3,6,7)             -4.8552         estimate D2E/DX2                !
 ! D28   D(4,3,6,8)           -124.0569         estimate D2E/DX2                !
 ! D29   D(4,3,6,9)            115.5705         estimate D2E/DX2                !
 ! D30   D(3,4,5,1)             -4.9435         estimate D2E/DX2                !
 ! D31   D(3,4,5,10)          -174.1026         estimate D2E/DX2                !
 ! D32   D(1,5,10,11)          -58.8274         estimate D2E/DX2                !
 ! D33   D(1,5,10,12)         -179.0311         estimate D2E/DX2                !
 ! D34   D(1,5,10,13)           61.3746         estimate D2E/DX2                !
 ! D35   D(4,5,10,11)          109.5941         estimate D2E/DX2                !
 ! D36   D(4,5,10,12)          -10.6096         estimate D2E/DX2                !
 ! D37   D(4,5,10,13)         -130.2039         estimate D2E/DX2                !
 ! D38   D(3,6,7,18)            61.596          estimate D2E/DX2                !
 ! D39   D(3,6,7,19)          -178.148          estimate D2E/DX2                !
 ! D40   D(3,6,7,20)           -58.6443         estimate D2E/DX2                !
 ! D41   D(8,6,7,18)          -178.9094         estimate D2E/DX2                !
 ! D42   D(8,6,7,19)           -58.6533         estimate D2E/DX2                !
 ! D43   D(8,6,7,20)            60.8504         estimate D2E/DX2                !
 ! D44   D(9,6,7,18)           -58.857          estimate D2E/DX2                !
 ! D45   D(9,6,7,19)            61.3991         estimate D2E/DX2                !
 ! D46   D(9,6,7,20)          -179.0973         estimate D2E/DX2                !
 ! D47   D(3,6,8,21)           -64.8175         estimate D2E/DX2                !
 ! D48   D(3,6,8,22)           175.9169         estimate D2E/DX2                !
 ! D49   D(3,6,8,23)            56.5857         estimate D2E/DX2                !
 ! D50   D(7,6,8,21)           175.3519         estimate D2E/DX2                !
 ! D51   D(7,6,8,22)            56.0864         estimate D2E/DX2                !
 ! D52   D(7,6,8,23)           -63.2448         estimate D2E/DX2                !
 ! D53   D(9,6,8,21)            55.4419         estimate D2E/DX2                !
 ! D54   D(9,6,8,22)           -63.8236         estimate D2E/DX2                !
 ! D55   D(9,6,8,23)           176.8452         estimate D2E/DX2                !
 ! D56   D(3,6,9,24)           179.0156         estimate D2E/DX2                !
 ! D57   D(3,6,9,25)           -61.149          estimate D2E/DX2                !
 ! D58   D(3,6,9,26)            59.2683         estimate D2E/DX2                !
 ! D59   D(7,6,9,24)           -60.4316         estimate D2E/DX2                !
 ! D60   D(7,6,9,25)            59.4037         estimate D2E/DX2                !
 ! D61   D(7,6,9,26)           179.821          estimate D2E/DX2                !
 ! D62   D(8,6,9,24)            58.9845         estimate D2E/DX2                !
 ! D63   D(8,6,9,25)           178.8198         estimate D2E/DX2                !
 ! D64   D(8,6,9,26)           -60.7629         estimate D2E/DX2                !
 ! D65   D(5,10,11,27)          62.0813         estimate D2E/DX2                !
 ! D66   D(5,10,11,28)        -178.4049         estimate D2E/DX2                !
 ! D67   D(5,10,11,29)         -58.811          estimate D2E/DX2                !
 ! D68   D(12,10,11,27)       -177.016          estimate D2E/DX2                !
 ! D69   D(12,10,11,28)        -57.5023         estimate D2E/DX2                !
 ! D70   D(12,10,11,29)         62.0917         estimate D2E/DX2                !
 ! D71   D(13,10,11,27)        -57.8104         estimate D2E/DX2                !
 ! D72   D(13,10,11,28)         61.7034         estimate D2E/DX2                !
 ! D73   D(13,10,11,29)       -178.7026         estimate D2E/DX2                !
 ! D74   D(5,10,12,30)         -58.1801         estimate D2E/DX2                !
 ! D75   D(5,10,12,31)        -177.8508         estimate D2E/DX2                !
 ! D76   D(5,10,12,32)          62.273          estimate D2E/DX2                !
 ! D77   D(11,10,12,30)       -178.6674         estimate D2E/DX2                !
 ! D78   D(11,10,12,31)         61.6619         estimate D2E/DX2                !
 ! D79   D(11,10,12,32)        -58.2143         estimate D2E/DX2                !
 ! D80   D(13,10,12,30)         61.6108         estimate D2E/DX2                !
 ! D81   D(13,10,12,31)        -58.0599         estimate D2E/DX2                !
 ! D82   D(13,10,12,32)       -177.9361         estimate D2E/DX2                !
 ! D83   D(5,10,13,33)         -62.4601         estimate D2E/DX2                !
 ! D84   D(5,10,13,34)          58.6155         estimate D2E/DX2                !
 ! D85   D(5,10,13,35)         178.1512         estimate D2E/DX2                !
 ! D86   D(11,10,13,33)         57.6904         estimate D2E/DX2                !
 ! D87   D(11,10,13,34)        178.7661         estimate D2E/DX2                !
 ! D88   D(11,10,13,35)        -61.6983         estimate D2E/DX2                !
 ! D89   D(12,10,13,33)        177.0665         estimate D2E/DX2                !
 ! D90   D(12,10,13,34)        -61.8578         estimate D2E/DX2                !
 ! D91   D(12,10,13,35)         57.6778         estimate D2E/DX2                !
 --------------------------------------------------------------------------------
 Trust Radius=3.00D-01 FncErr=1.00D-07 GrdErr=1.00D-06
 Number of steps in this run=    203 maximum allowed number of steps=    210.
 GradGradGradGradGradGradGradGradGradGradGradGradGradGradGradGradGradGrad

 Leave Link  103 at Sun Jun 20 19:34:22 2021, MaxMem=  3355443200 cpu:         0.1
 (Enter /usr/local/gqt/g09/l202.exe)
                          Input orientation:                          
 ---------------------------------------------------------------------
 Center     Atomic      Atomic             Coordinates (Angstroms)
 Number     Number       Type             X           Y           Z
 ---------------------------------------------------------------------
      1          6           0       -2.904219    1.019652   -1.460657
      2          6           0       -4.328551    1.279175   -1.004995
      3          7           0       -4.693453   -0.016399   -0.414899
      4          6           0       -3.627729   -0.793405   -0.164308
      5          7           0       -2.560231   -0.189897   -0.698939
      6          6           0       -6.012876   -0.211329    0.207465
      7          6           0       -5.999813   -1.473936    1.059116
      8          6           0       -7.067612   -0.367164   -0.886450
      9          6           0       -6.350588    0.996121    1.085415
     10          6           0       -1.203068   -0.751285   -0.766160
     11          6           0       -0.863397   -1.102367   -2.216812
     12          6           0       -1.108849   -2.007782    0.086523
     13          6           0       -0.204823    0.281228   -0.237962
     14          1           0       -2.856034    0.821332   -2.532108
     15          1           0       -2.236554    1.846533   -1.238874
     16          1           0       -4.377691    2.071274   -0.254853
     17          1           0       -4.981518    1.550931   -1.828098
     18          1           0       -5.274798   -1.395870    1.862129
     19          1           0       -6.988229   -1.627600    1.488539
     20          1           0       -5.745707   -2.343590    0.455971
     21          1           0       -7.179734    0.538369   -1.478973
     22          1           0       -8.032385   -0.583483   -0.433106
     23          1           0       -6.813892   -1.188392   -1.555022
     24          1           0       -7.332547    0.875866    1.540385
     25          1           0       -5.613570    1.099799    1.879628
     26          1           0       -6.365114    1.918239    0.506309
     27          1           0       -0.867024   -0.221946   -2.856567
     28          1           0        0.129477   -1.544779   -2.270817
     29          1           0       -1.579949   -1.819776   -2.613467
     30          1           0       -1.367007   -1.800593    1.121938
     31          1           0       -0.086411   -2.379521    0.048926
     32          1           0       -1.776645   -2.783691   -0.275655
     33          1           0       -0.193559    1.184206   -0.844671
     34          1           0       -0.447026    0.557182    0.786845
     35          1           0        0.800619   -0.134788   -0.252053
 ---------------------------------------------------------------------
                    Distance matrix (angstroms):
                    1          2          3          4          5
     1  C    0.000000
     2  C    1.517795   0.000000
     3  N    2.316974   1.469653   0.000000
     4  C    2.343323   2.343820   1.342498   0.000000
     5  N    1.470221   2.319224   2.159031   1.337761   0.000000
     6  C    3.736535   2.555115   1.471806   2.483134   3.569704
     7  C    4.706372   3.825349   2.450247   2.754391   4.070656
     8  C    4.425699   3.197959   2.445818   3.540617   4.514761
     9  C    4.284915   2.922083   2.454025   3.489724   4.354006
    10  C    2.551952   3.734763   3.584164   2.498596   1.470227
    11  C    3.039686   4.375790   4.369845   3.456843   2.452710
    12  C    3.844799   4.728845   4.131152   2.807558   2.455232
    13  C    3.054012   4.311539   4.501965   3.588391   2.445896
    14  H    1.090715   2.170254   2.925829   2.968058   2.114377
    15  H    1.085678   2.180148   3.191521   3.171645   2.131512
    16  H    2.175084   1.092039   2.117475   2.962605   2.934837
    17  H    2.175418   1.085226   2.129938   3.177555   3.188748
    18  H    4.742921   4.033814   2.725025   2.679972   3.922030
    19  H    5.690768   4.662718   3.388959   3.836763   5.143853
    20  H    4.801970   4.155380   2.698421   2.696971   4.014906
    21  H    4.302557   2.983738   2.760727   4.014811   4.741164
    22  H    5.470283   4.185086   3.386796   4.417841   5.492727
    23  H    4.491092   3.545185   2.677632   3.498819   4.452359
    24  H    5.351357   3.957981   3.403541   4.406600   5.378236
    25  H    4.301687   3.162989   2.712446   3.421324   4.199429
    26  H    4.080957   2.615346   2.717702   3.911013   4.513757
    27  H    2.764108   4.202839   4.543738   3.898245   2.742870
    28  H    4.054131   5.426881   5.388973   4.372475   3.397210
    29  H    3.338415   4.443590   4.216607   3.353389   2.698680
    30  H    4.121480   4.772793   4.075593   2.789215   2.708084
    31  H    4.666183   5.700224   5.198492   3.886151   3.387262
    32  H    4.140178   4.852941   4.023066   2.720321   2.742434
    33  H    2.784635   4.139189   4.677093   4.020866   2.740535
    34  H    3.361985   4.335689   4.450318   3.584083   2.689111
    35  H    4.064392   5.373509   5.497760   4.477917   3.390878
                    6          7          8          9         10
     6  C    0.000000
     7  C    1.523042   0.000000
     8  C    1.527548   2.479993   0.000000
     9  C    1.530615   2.494979   2.502183   0.000000
    10  C    4.936978   5.182916   5.878341   5.742710   0.000000
    11  C    5.760920   6.103485   6.387697   6.739260   1.530695
    12  C    5.224112   5.015222   6.256610   6.123483   1.521424
    13  C    5.845896   6.192328   6.923787   6.327150   1.530219
    14  H    4.305497   5.296083   4.675265   5.032786   2.885133
    15  H    4.537323   5.519818   5.325765   4.801125   2.835526
    16  H    2.845671   4.114160   3.685182   2.616218   4.278610
    17  H    2.883189   4.303806   2.986231   3.266608   4.550230
    18  H    2.164673   1.084698   3.439056   2.735367   4.889006
    19  H    2.144362   1.088570   2.689902   2.730019   6.270541
    20  H    2.163255   1.088417   2.730529   3.451920   4.966348
    21  H    2.183501   3.447242   1.087954   2.733698   6.155635
    22  H    2.151104   2.674132   1.087705   2.762154   6.839493
    23  H    2.168557   2.752812   1.088934   3.458129   5.682844
    24  H    2.167995   2.743970   2.739497   1.088899   6.748206
    25  H    2.162089   2.728834   3.452159   1.088448   5.466190
    26  H    2.179092   3.456284   2.767011   1.088980   5.949140
    27  H    5.989006   6.576137   6.507668   6.862389   2.182413
    28  H    6.756365   6.975791   7.423028   7.727335   2.160857
    29  H    5.495052   5.756967   5.933558   6.661081   2.167085
    30  H    4.994609   4.644733   6.211702   5.714807   2.166296
    31  H    6.312621   6.067033   7.325413   7.190910   2.135987
    32  H    4.979569   4.618681   5.848676   6.087729   2.168008
    33  H    6.076097   6.663536   7.047063   6.455201   2.184353
    34  H    5.648449   5.918870   6.891044   5.927382   2.166913
    35  H    6.829402   7.053960   7.897184   7.362577   2.158503
                   11         12         13         14         15
    11  C    0.000000
    12  C    2.487041   0.000000
    13  C    2.502779   2.482362   0.000000
    14  H    2.787585   4.232466   3.547356   0.000000
    15  H    3.396753   4.228964   2.753168   1.762738   0.000000
    16  H    5.125577   5.238374   4.540636   3.010596   2.367123
    17  H    4.914266   5.597122   5.192061   2.354916   2.823011
    18  H    6.015344   4.569721   5.738266   5.484134   5.418517
    19  H    7.177678   6.056179   7.255276   6.264017   6.487434
    20  H    5.702750   4.663659   6.170301   5.224516   5.722219
    21  H    6.567536   6.766780   7.089119   4.459097   5.118981
    22  H    7.405757   7.087595   7.877597   5.759681   6.336079
    23  H    5.987801   5.992795   6.897407   4.545144   5.501159
    24  H    7.738206   7.011673   7.370249   6.052053   5.885204
    25  H    6.647894   5.758888   5.865900   5.210083   4.656920
    26  H    6.841663   6.574054   6.417393   4.769573   4.482836
    27  H    1.088320   3.451010   2.747505   2.269331   2.961612
    28  H    1.088322   2.702753   2.752918   3.818381   4.261925
    29  H    1.088787   2.747222   3.456619   2.934359   3.970196
    30  H    3.447955   1.087041   2.744809   4.737483   4.430697
    31  H    2.714479   1.088569   2.678789   4.957621   4.913357
    32  H    2.725612   1.085891   3.444673   4.387807   4.751661
    33  H    2.749522   3.448719   1.087930   3.172995   2.183553
    34  H    3.456794   2.739982   1.088596   4.109567   2.994724
    35  H    2.750534   2.696073   1.088201   4.414060   3.758174
                   16         17         18         19         20
    16  H    0.000000
    17  H    1.763651   0.000000
    18  H    4.160229   4.731535   0.000000
    19  H    4.851391   5.012986   1.768930   0.000000
    20  H    4.676298   4.579111   1.759888   1.767116   0.000000
    21  H    3.420484   2.445266   4.305000   3.678889   3.755813
    22  H    4.520653   3.976119   3.678636   2.423460   3.019492
    23  H    4.272112   3.306971   3.753502   3.080026   2.553350
    24  H    3.658286   4.162899   3.081986   2.527565   3.749522
    25  H    2.650881   3.788171   2.518618   3.079178   3.728429
    26  H    2.133691   2.738378   3.743042   3.731759   4.306901
    27  H    4.934831   4.596727   6.562977   7.637078   6.267044
    28  H    6.120009   5.991802   6.805116   8.049929   6.526198
    29  H    5.341413   4.852746   5.819155   6.790647   5.200901
    30  H    5.094225   5.744573   3.997814   5.635820   4.462216
    31  H    6.190068   6.552385   5.583425   7.090343   5.674029
    32  H    5.507863   5.609834   4.328192   5.622236   4.059855
    33  H    4.317608   4.901649   6.308927   7.714769   6.705473
    34  H    4.339094   5.327953   5.317710   6.932026   6.049792
    35  H    5.628642   6.225647   6.555211   8.119378   6.945106
                   21         22         23         24         25
    21  H    0.000000
    22  H    1.754823   0.000000
    23  H    1.766728   1.763331   0.000000
    24  H    3.042002   2.552281   3.756555   0.000000
    25  H    3.748103   3.746043   4.298070   1.766384   0.000000
    26  H    2.551273   3.149748   3.755216   1.758346   1.766541
    27  H    6.505855   7.572733   6.163869   7.895655   6.834343
    28  H    7.641406   8.421239   6.989260   8.721616   7.563238
    29  H    6.181061   6.922162   5.377092   7.590346   6.706856
    30  H    6.784046   6.951747   6.099956   6.551809   5.198044
    31  H    7.820728   8.160675   7.017866   8.082604   6.782818
    32  H    6.455806   6.633249   5.436508   6.896260   5.869304
    33  H    7.044579   8.046198   7.068425   7.533174   6.066749
    34  H    7.103777   7.767050   7.004881   6.933959   5.308652
    35  H    8.102130   8.846246   7.796704   8.389437   6.870960
                   26         27         28         29         30
    26  H    0.000000
    27  H    6.791048   0.000000
    28  H    7.866679   1.756703   0.000000
    29  H    6.826681   1.766471   1.764984   0.000000
    30  H    6.260175   4.309363   3.716947   3.741519   0.000000
    31  H    7.622471   3.702212   2.474795   3.103596   1.768174
    32  H    6.616167   3.748474   3.024711   2.536373   1.757143
    33  H    6.360192   2.545298   3.096063   3.751616   3.762121
    34  H    6.079058   3.749385   3.754982   4.300647   2.552989
    35  H    7.492514   3.093885   2.552237   3.752674   3.059634
                   31         32         33         34         35
    31  H    0.000000
    32  H    1.767936   0.000000
    33  H    3.675615   4.309773   0.000000
    34  H    3.049392   3.749430   1.766140   0.000000
    35  H    2.432332   3.695881   1.754802   1.764865   0.000000
 Stoichiometry    C11H22N2
 Framework group  C1[X(C11H22N2)]
 Deg. of freedom    99
 Full point group                 C1      NOp   1
 Largest Abelian subgroup         C1      NOp   1
 Largest concise Abelian subgroup C1      NOp   1
                         Standard orientation:                         
 ---------------------------------------------------------------------
 Center     Atomic      Atomic             Coordinates (Angstroms)
 Number     Number       Type             X           Y           Z
 ---------------------------------------------------------------------
      1          6           0        0.753408   -1.619457    0.110885
      2          6           0       -0.752997   -1.623618   -0.074662
      3          7           0       -1.082988   -0.206850    0.134508
      4          6           0       -0.009592    0.595443    0.054215
      5          7           0        1.069830   -0.190456   -0.028340
      6          6           0       -2.470340    0.266692    0.003259
      7          6           0       -2.488208    1.785343   -0.110920
      8          6           0       -3.261598   -0.142288    1.244246
      9          6           0       -3.107830   -0.349061   -1.244634
     10          6           0        2.466619    0.268045   -0.010364
     11          6           0        3.125777   -0.143760    1.308330
     12          6           0        2.526885    1.782133   -0.146882
     13          6           0        3.219000   -0.364895   -1.182917
     14          1           0        1.036177   -1.977202    1.101703
     15          1           0        1.267831   -2.226301   -0.627902
     16          1           0       -1.038127   -1.940854   -1.079954
     17          1           0       -1.254396   -2.268981    0.639356
     18          1           0       -1.951293    2.116989   -0.993135
     19          1           0       -3.519318    2.128508   -0.174430
     20          1           0       -2.024306    2.243310    0.760695
     21          1           0       -3.352474   -1.222708    1.334125
     22          1           0       -4.267544    0.267229    1.185334
     23          1           0       -2.790357    0.241220    2.147922
     24          1           0       -4.141444   -0.022266   -1.347338
     25          1           0       -2.560299   -0.043990   -2.134500
     26          1           0       -3.108196   -1.436970   -1.196372
     27          1           0        3.152739   -1.225417    1.425511
     28          1           0        4.152108    0.216838    1.340861
     29          1           0        2.586583    0.281278    2.153357
     30          1           0        2.045899    2.113729   -1.063590
     31          1           0        3.570916    2.089524   -0.169065
     32          1           0        2.034738    2.275208    0.686082
     33          1           0        3.251369   -1.449757   -1.107962
     34          1           0        2.748070   -0.098257   -2.127466
     35          1           0        4.246681   -0.007446   -1.199743
 ---------------------------------------------------------------------
 Rotational constants (GHZ):      1.5934304      0.4470174      0.4139221
 Leave Link  202 at Sun Jun 20 19:34:22 2021, MaxMem=  3355443200 cpu:         0.0
 (Enter /usr/local/gqt/g09/l301.exe)
 Standard basis: 6-311+G(d,p) (5D, 7F)
 Ernie: Thresh=  0.10000D-02 Tol=  0.10000D-05 Strict=F.
 There are   431 symmetry adapted cartesian basis functions of A   symmetry.
 There are   418 symmetry adapted basis functions of A   symmetry.
   418 basis functions,   644 primitive gaussians,   431 cartesian basis functions
    51 alpha electrons       51 beta electrons
       nuclear repulsion energy       886.8436317509 Hartrees.
 IExCor= 5547 DFT=T Ex+Corr=N12SX ExCW=0 ScaHFX=  0.250000
 ScaDFX=  1.000000  1.000000  1.000000  1.000000 ScalE2=  1.000000  1.000000
 IRadAn=      0 IRanWt=     -1 IRanGd=            0 ICorTp=0 IEmpDi=  4
  HFx wShort=  0.110000 wLong=  0.000000 cFull=  0.000000 cShort=  1.000000 cLong=  0.000000
  DFx wShort=  0.110000 wLong=  0.000000 cFull=  0.000000 cShort=  1.000000 cLong=  0.000000
 NAtoms=   35 NActive=   35 NUniq=   35 SFac= 1.00D+00 NAtFMM=   60 NAOKFM=F Big=F
 Integral buffers will be    131072 words long.
 Raffenetti 2 integral format.
 Two-electron integral symmetry is turned on.
 ------------------------------------------------------------------------------
 Polarizable Continuum Model (PCM)
 =================================
 Model                : PCM (using non-symmetric T matrix).
 Atomic radii         : UFF (Universal Force Field).
 Polarization charges : Total charges.
 Charge compensation  : None.
 Solution method      : On-the-fly selection.
 Cavity type          : Scaled VdW (van der Waals Surface) (Alpha=1.100).
 Cavity algorithm     : GePol (No added spheres)
                        Default sphere list used, NSphG=   35.
                        Lebedev-Laikov grids with approx.  5.0 points / Ang**2.
                        Smoothing algorithm: Karplus/York (Gamma=1.0000).
                        Polarization charges: spherical gaussians, with
                                              point-specific exponents (IZeta= 3).
                        Self-potential: point-specific (ISelfS= 7).
                        Self-field    : sphere-specific E.n sum rule (ISelfD= 2).
 1st derivatives      : Analytical E(r).r(x)/FMM algorithm (CHGder, D1EAlg=3).
                        Cavity 1st derivative terms included.
 Solvent              : Water, Eps=  78.355300 Eps(inf)=   1.777849
 ------------------------------------------------------------------------------
 GePol: Number of generator spheres                  =      35
 GePol: Total number of spheres                      =      35
 GePol: Number of exposed spheres                    =      35 (100.00%)
 GePol: Number of points                             =    2182
 GePol: Average weight of points                     =       0.13
 GePol: Minimum weight of points                     =   0.99D-10
 GePol: Maximum weight of points                     =    0.20577
 GePol: Number of points with low weight             =     161
 GePol: Fraction of low-weight points (<1% of avg)   =       7.38%
 GePol: Cavity surface area                          =    289.400 Ang**2
 GePol: Cavity volume                                =    310.326 Ang**3
 Leave Link  301 at Sun Jun 20 19:34:22 2021, MaxMem=  3355443200 cpu:         0.7
 (Enter /usr/local/gqt/g09/l302.exe)
 NPDir=0 NMtPBC=     1 NCelOv=     1 NCel=       1 NClECP=     1 NCelD=      1
         NCelK=      1 NCelE2=     1 NClLst=     1 CellRange=     0.0.
 One-electron integrals computed using PRISM.
 NBasis=   418 RedAO= T EigKep=  7.60D-06  NBF=   418
 NBsUse=   418 1.00D-06 EigRej= -1.00D+00 NBFU=   418
 Precomputing XC quadrature grid using
 IXCGrd= 4 IRadAn=           0 IRanWt=          -1 IRanGd=           0 AccXCQ= 0.00D+00.
 Generated NRdTot=       0 NPtTot=           0 NUsed=           0 NTot=          32
 NSgBfM=   431   431   431   431   431 MxSgAt=    35 MxSgA2=    35.
 Leave Link  302 at Sun Jun 20 19:34:23 2021, MaxMem=  3355443200 cpu:         8.3
 (Enter /usr/local/gqt/g09/l303.exe)
 DipDrv:  MaxL=1.
 Leave Link  303 at Sun Jun 20 19:34:23 2021, MaxMem=  3355443200 cpu:         0.9
 (Enter /usr/local/gqt/g09/l401.exe)
 ExpMin= 4.38D-02 ExpMax= 6.29D+03 ExpMxC= 9.49D+02 IAcc=2 IRadAn=         4 AccDes= 0.00D+00
 Harris functional with IExCor= 5547 and IRadAn=       4 diagonalized for initial guess.
 HarFok:  IExCor= 5547 AccDes= 0.00D+00 IRadAn=         4 IDoV= 1 UseB2=F ITyADJ=14
 ICtDFT=  3500011 ScaDFX=  1.000000  1.000000  1.000000  1.000000
 FoFCou: FMM=F IPFlag=           0 FMFlag=      100000 FMFlg1=           0
         NFxFlg=           0 DoJE=T BraDBF=F KetDBF=T FulRan=T
         wScrn=  0.000000 ICntrl=     500 IOpCl=  0 I1Cent=   200000004 NGrid=           0
         NMat0=    1 NMatS0=      1 NMatT0=    0 NMatD0=    1 NMtDS0=    0 NMtDT0=    0
 Petite list used in FoFCou.
 Harris En= -524.147599042552    
 JPrj=0 DoOrth=F DoCkMO=F.
 Leave Link  401 at Sun Jun 20 19:34:25 2021, MaxMem=  3355443200 cpu:        28.3
 (Enter /usr/local/gqt/g09/l502.exe)
 Closed shell SCF:
 Using DIIS extrapolation, IDIIS=  1040.
 Integral symmetry usage will be decided dynamically.
 IVT=      585969 IEndB=      585969 NGot=  3355443200 MDV=  3355060064
 LenX=  3355060064 LenY=  3354873862
 Requested convergence on RMS density matrix=1.00D-08 within 128 cycles.
 Requested convergence on MAX density matrix=1.00D-06.
 Requested convergence on             energy=1.00D-06.
 No special actions if energy rises.
 Fock matrices will be formed incrementally for  20 cycles.

 Cycle   1  Pass 1  IDiag  1:
 FoFJK:  IHMeth= 1 ICntrl=       0 DoSepK=T KAlg= 0 I1Cent=   0 FoldK=F
 IRaf=         1 NMat=   1 IRICut=       1 DoRegI=T DoRafI=F ISym2E= 0.
 FoFCou: FMM=F IPFlag=           0 FMFlag=      100000 FMFlg1=           0
         NFxFlg=           0 DoJE=T BraDBF=F KetDBF=F FulRan=T
         wScrn=  0.000000 ICntrl=     500 IOpCl=  0 I1Cent=           0 NGrid=           0
         NMat0=    1 NMatS0=      1 NMatT0=    0 NMatD0=    1 NMtDS0=    0 NMtDT0=    0
 Symmetry not used in FoFCou.
 Inv3:  Mode=1 IEnd=    14283372.
 Iteration    1 A*A^-1 deviation from unit magnitude is 4.66D-15 for   2173.
 Iteration    1 A*A^-1 deviation from orthogonality  is 4.76D-15 for   2176    811.
 Iteration    1 A^-1*A deviation from unit magnitude is 4.88D-15 for   2173.
 Iteration    1 A^-1*A deviation from orthogonality  is 2.03D-10 for   1802   1800.
 Iteration    2 A*A^-1 deviation from unit magnitude is 2.44D-15 for    155.
 Iteration    2 A*A^-1 deviation from orthogonality  is 6.77D-15 for   2176    811.
 Iteration    2 A^-1*A deviation from unit magnitude is 9.99D-16 for    431.
 Iteration    2 A^-1*A deviation from orthogonality  is 4.02D-16 for   2162    813.
 E= -541.524450352440    
 DIIS: error= 8.06D-02 at cycle   1 NSaved=   1.
 NSaved= 1 IEnMin= 1 EnMin= -541.524450352440     IErMin= 1 ErrMin= 8.06D-02
 ErrMax= 8.06D-02  0.00D+00 EMaxC= 1.00D-01 BMatC= 1.34D+00 BMatP= 1.34D+00
 IDIUse=3 WtCom= 1.94D-01 WtEn= 8.06D-01
 Coeff-Com:  0.100D+01
 Coeff-En:   0.100D+01
 Coeff:      0.100D+01
 Gap=     0.271 Goal=   None    Shift=    0.000
 GapD=    0.271 DampG=1.000 DampE=0.500 DampFc=0.5000 IDamp=-1.
 Damping current iteration by 5.00D-01
 RMSDP=5.68D-03 MaxDP=9.74D-01              OVMax= 1.10D-01

 Cycle   2  Pass 1  IDiag  1:
 RMSU=  1.94D-03    CP:  8.64D-01
 E= -541.623076712154     Delta-E=       -0.098626359714 Rises=F Damp=T
 DIIS: error= 3.50D-02 at cycle   2 NSaved=   2.
 NSaved= 2 IEnMin= 2 EnMin= -541.623076712154     IErMin= 2 ErrMin= 3.50D-02
 ErrMax= 3.50D-02  0.00D+00 EMaxC= 1.00D-01 BMatC= 2.80D-01 BMatP= 1.34D+00
 IDIUse=3 WtCom= 6.50D-01 WtEn= 3.50D-01
 Coeff-Com: -0.533D+00 0.153D+01
 Coeff-En:   0.000D+00 0.100D+01
 Coeff:     -0.347D+00 0.135D+01
 Gap=     0.229 Goal=   None    Shift=    0.000
 RMSDP=2.60D-03 MaxDP=3.72D-01 DE=-9.86D-02 OVMax= 1.27D-01

 Cycle   3  Pass 1  IDiag  1:
 RMSU=  2.00D-03    CP:  7.58D-01  1.23D+00
 E= -541.658407063088     Delta-E=       -0.035330350934 Rises=F Damp=F
 DIIS: error= 1.42D-02 at cycle   3 NSaved=   3.
 NSaved= 3 IEnMin= 3 EnMin= -541.658407063088     IErMin= 3 ErrMin= 1.42D-02
 ErrMax= 1.42D-02  0.00D+00 EMaxC= 1.00D-01 BMatC= 1.06D-01 BMatP= 2.80D-01
 IDIUse=3 WtCom= 8.58D-01 WtEn= 1.42D-01
 Coeff-Com: -0.357D+00 0.793D+00 0.564D+00
 Coeff-En:   0.000D+00 0.287D+00 0.713D+00
 Coeff:     -0.307D+00 0.721D+00 0.585D+00
 Gap=     0.221 Goal=   None    Shift=    0.000
 RMSDP=1.35D-03 MaxDP=5.62D-02 DE=-3.53D-02 OVMax= 6.81D-02

 Cycle   4  Pass 1  IDiag  1:
 RMSU=  3.82D-04    CP:  7.53D-01  1.61D+00  4.66D-01
 E= -541.742720271828     Delta-E=       -0.084313208740 Rises=F Damp=F
 DIIS: error= 4.35D-03 at cycle   4 NSaved=   4.
 NSaved= 4 IEnMin= 4 EnMin= -541.742720271828     IErMin= 4 ErrMin= 4.35D-03
 ErrMax= 4.35D-03  0.00D+00 EMaxC= 1.00D-01 BMatC= 6.84D-03 BMatP= 1.06D-01
 IDIUse=3 WtCom= 9.56D-01 WtEn= 4.35D-02
 Coeff-Com: -0.174D+00 0.389D+00 0.353D+00 0.432D+00
 Coeff-En:   0.000D+00 0.000D+00 0.000D+00 0.100D+01
 Coeff:     -0.167D+00 0.372D+00 0.338D+00 0.457D+00
 Gap=     0.196 Goal=   None    Shift=    0.000
 RMSDP=3.51D-04 MaxDP=3.34D-02 DE=-8.43D-02 OVMax= 1.69D-02

 Cycle   5  Pass 1  IDiag  1:
 RMSU=  1.64D-04    CP:  7.44D-01  1.57D+00  5.78D-01  6.19D-01
 E= -541.748164602941     Delta-E=       -0.005444331112 Rises=F Damp=F
 DIIS: error= 4.00D-04 at cycle   5 NSaved=   5.
 NSaved= 5 IEnMin= 5 EnMin= -541.748164602941     IErMin= 5 ErrMin= 4.00D-04
 ErrMax= 4.00D-04  0.00D+00 EMaxC= 1.00D-01 BMatC= 6.08D-05 BMatP= 6.84D-03
 IDIUse=3 WtCom= 9.96D-01 WtEn= 4.00D-03
 Coeff-Com: -0.892D-02 0.188D-01 0.289D-01 0.119D+00 0.842D+00
 Coeff-En:   0.000D+00 0.000D+00 0.000D+00 0.000D+00 0.100D+01
 Coeff:     -0.889D-02 0.187D-01 0.288D-01 0.119D+00 0.843D+00
 Gap=     0.194 Goal=   None    Shift=    0.000
 RMSDP=4.56D-05 MaxDP=1.99D-03 DE=-5.44D-03 OVMax= 3.03D-03

 Cycle   6  Pass 1  IDiag  1:
 RMSU=  4.08D-05    CP:  7.44D-01  1.58D+00  5.81D-01  6.41D-01  8.92D-01
 E= -541.748201118046     Delta-E=       -0.000036515105 Rises=F Damp=F
 DIIS: error= 1.78D-04 at cycle   6 NSaved=   6.
 NSaved= 6 IEnMin= 6 EnMin= -541.748201118046     IErMin= 6 ErrMin= 1.78D-04
 ErrMax= 1.78D-04  0.00D+00 EMaxC= 1.00D-01 BMatC= 1.48D-05 BMatP= 6.08D-05
 IDIUse=3 WtCom= 9.98D-01 WtEn= 1.78D-03
 Coeff-Com:  0.119D-02-0.336D-02 0.406D-02 0.535D-01 0.494D+00 0.451D+00
 Coeff-En:   0.000D+00 0.000D+00 0.000D+00 0.000D+00 0.162D+00 0.838D+00
 Coeff:      0.119D-02-0.336D-02 0.405D-02 0.534D-01 0.493D+00 0.452D+00
 Gap=     0.195 Goal=   None    Shift=    0.000
 RMSDP=2.36D-05 MaxDP=1.61D-03 DE=-3.65D-05 OVMax= 1.32D-03

 Cycle   7  Pass 1  IDiag  1:
 RMSU=  1.18D-05    CP:  7.44D-01  1.58D+00  5.79D-01  6.38D-01  9.61D-01
                    CP:  6.41D-01
 E= -541.748214297213     Delta-E=       -0.000013179167 Rises=F Damp=F
 DIIS: error= 6.17D-05 at cycle   7 NSaved=   7.
 NSaved= 7 IEnMin= 7 EnMin= -541.748214297213     IErMin= 7 ErrMin= 6.17D-05
 ErrMax= 6.17D-05  0.00D+00 EMaxC= 1.00D-01 BMatC= 8.33D-07 BMatP= 1.48D-05
 IDIUse=1 WtCom= 1.00D+00 WtEn= 0.00D+00
 Coeff-Com:  0.147D-02-0.349D-02-0.461D-03 0.172D-01 0.175D+00 0.233D+00
 Coeff-Com:  0.577D+00
 Coeff:      0.147D-02-0.349D-02-0.461D-03 0.172D-01 0.175D+00 0.233D+00
 Coeff:      0.577D+00
 Gap=     0.195 Goal=   None    Shift=    0.000
 RMSDP=5.80D-06 MaxDP=2.01D-04 DE=-1.32D-05 OVMax= 4.97D-04

 Cycle   8  Pass 1  IDiag  1:
 RMSU=  4.65D-06    CP:  7.44D-01  1.58D+00  5.79D-01  6.40D-01  9.64D-01
                    CP:  6.64D-01  7.49D-01
 E= -541.748214815739     Delta-E=       -0.000000518526 Rises=F Damp=F
 DIIS: error= 2.72D-05 at cycle   8 NSaved=   8.
 NSaved= 8 IEnMin= 8 EnMin= -541.748214815739     IErMin= 8 ErrMin= 2.72D-05
 ErrMax= 2.72D-05  0.00D+00 EMaxC= 1.00D-01 BMatC= 2.19D-07 BMatP= 8.33D-07
 IDIUse=1 WtCom= 1.00D+00 WtEn= 0.00D+00
 Coeff-Com:  0.747D-03-0.166D-02-0.871D-03 0.259D-02 0.317D-01 0.734D-01
 Coeff-Com:  0.372D+00 0.523D+00
 Coeff:      0.747D-03-0.166D-02-0.871D-03 0.259D-02 0.317D-01 0.734D-01
 Coeff:      0.372D+00 0.523D+00
 Gap=     0.195 Goal=   None    Shift=    0.000
 RMSDP=2.52D-06 MaxDP=1.24D-04 DE=-5.19D-07 OVMax= 1.65D-04

 Cycle   9  Pass 1  IDiag  1:
 RMSU=  1.33D-06    CP:  7.44D-01  1.58D+00  5.79D-01  6.41D-01  9.60D-01
                    CP:  6.63D-01  7.86D-01  5.91D-01
 E= -541.748215009192     Delta-E=       -0.000000193453 Rises=F Damp=F
 DIIS: error= 3.45D-06 at cycle   9 NSaved=   9.
 NSaved= 9 IEnMin= 9 EnMin= -541.748215009192     IErMin= 9 ErrMin= 3.45D-06
 ErrMax= 3.45D-06  0.00D+00 EMaxC= 1.00D-01 BMatC= 5.82D-09 BMatP= 2.19D-07
 IDIUse=1 WtCom= 1.00D+00 WtEn= 0.00D+00
 Coeff-Com:  0.151D-03-0.314D-03-0.207D-03-0.128D-03-0.194D-03 0.104D-01
 Coeff-Com:  0.103D+00 0.215D+00 0.672D+00
 Coeff:      0.151D-03-0.314D-03-0.207D-03-0.128D-03-0.194D-03 0.104D-01
 Coeff:      0.103D+00 0.215D+00 0.672D+00
 Gap=     0.195 Goal=   None    Shift=    0.000
 RMSDP=5.73D-07 MaxDP=5.82D-05 DE=-1.93D-07 OVMax= 1.45D-05

 Cycle  10  Pass 1  IDiag  1:
 RMSU=  3.63D-07    CP:  7.44D-01  1.58D+00  5.79D-01  6.41D-01  9.61D-01
                    CP:  6.68D-01  7.98D-01  6.23D-01  8.31D-01
 E= -541.748215014428     Delta-E=       -0.000000005236 Rises=F Damp=F
 DIIS: error= 5.89D-07 at cycle  10 NSaved=  10.
 NSaved=10 IEnMin=10 EnMin= -541.748215014428     IErMin=10 ErrMin= 5.89D-07
 ErrMax= 5.89D-07  0.00D+00 EMaxC= 1.00D-01 BMatC= 1.31D-10 BMatP= 5.82D-09
 IDIUse=1 WtCom= 1.00D+00 WtEn= 0.00D+00
 Coeff-Com:  0.199D-04-0.398D-04-0.309D-04-0.151D-03-0.102D-02 0.296D-03
 Coeff-Com:  0.182D-01 0.475D-01 0.193D+00 0.743D+00
 Coeff:      0.199D-04-0.398D-04-0.309D-04-0.151D-03-0.102D-02 0.296D-03
 Coeff:      0.182D-01 0.475D-01 0.193D+00 0.743D+00
 Gap=     0.195 Goal=   None    Shift=    0.000
 RMSDP=1.09D-07 MaxDP=1.06D-05 DE=-5.24D-09 OVMax= 5.87D-06

 Cycle  11  Pass 1  IDiag  1:
 RMSU=  8.80D-08    CP:  7.44D-01  1.58D+00  5.79D-01  6.41D-01  9.61D-01
                    CP:  6.68D-01  8.01D-01  6.28D-01  8.29D-01  1.03D+00
 E= -541.748215014528     Delta-E=       -0.000000000100 Rises=F Damp=F
 DIIS: error= 2.85D-07 at cycle  11 NSaved=  11.
 NSaved=11 IEnMin=11 EnMin= -541.748215014528     IErMin=11 ErrMin= 2.85D-07
 ErrMax= 2.85D-07  0.00D+00 EMaxC= 1.00D-01 BMatC= 2.90D-11 BMatP= 1.31D-10
 IDIUse=1 WtCom= 1.00D+00 WtEn= 0.00D+00
 Coeff-Com: -0.717D-07 0.490D-06-0.695D-06-0.502D-04-0.207D-03-0.605D-03
 Coeff-Com: -0.500D-03 0.245D-02 0.254D-01 0.355D+00 0.618D+00
 Coeff:     -0.717D-07 0.490D-06-0.695D-06-0.502D-04-0.207D-03-0.605D-03
 Coeff:     -0.500D-03 0.245D-02 0.254D-01 0.355D+00 0.618D+00
 Gap=     0.195 Goal=   None    Shift=    0.000
 RMSDP=5.20D-08 MaxDP=6.03D-06 DE=-1.00D-10 OVMax= 1.12D-06

 Cycle  12  Pass 1  IDiag  1:
 RMSU=  1.99D-08    CP:  7.44D-01  1.58D+00  5.79D-01  6.41D-01  9.61D-01
                    CP:  6.68D-01  8.01D-01  6.29D-01  8.40D-01  9.99D-01
                    CP:  6.66D-01
 E= -541.748215014562     Delta-E=       -0.000000000034 Rises=F Damp=F
 DIIS: error= 4.06D-08 at cycle  12 NSaved=  12.
 NSaved=12 IEnMin=12 EnMin= -541.748215014562     IErMin=12 ErrMin= 4.06D-08
 ErrMax= 4.06D-08  0.00D+00 EMaxC= 1.00D-01 BMatC= 7.55D-13 BMatP= 2.90D-11
 IDIUse=1 WtCom= 1.00D+00 WtEn= 0.00D+00
 Coeff-Com: -0.193D-05 0.402D-05 0.237D-05-0.857D-05-0.139D-04-0.263D-03
 Coeff-Com: -0.168D-02-0.310D-02-0.738D-02 0.548D-01 0.185D+00 0.773D+00
 Coeff:     -0.193D-05 0.402D-05 0.237D-05-0.857D-05-0.139D-04-0.263D-03
 Coeff:     -0.168D-02-0.310D-02-0.738D-02 0.548D-01 0.185D+00 0.773D+00
 Gap=     0.195 Goal=   None    Shift=    0.000
 RMSDP=1.03D-08 MaxDP=9.30D-07 DE=-3.39D-11 OVMax= 1.98D-07

 Cycle  13  Pass 1  IDiag  1:
 RMSU=  5.85D-09    CP:  7.44D-01  1.58D+00  5.79D-01  6.41D-01  9.61D-01
                    CP:  6.68D-01  8.01D-01  6.29D-01  8.41D-01  1.01D+00
                    CP:  6.93D-01  9.06D-01
 E= -541.748215014574     Delta-E=       -0.000000000012 Rises=F Damp=F
 DIIS: error= 1.60D-08 at cycle  13 NSaved=  13.
 NSaved=13 IEnMin=13 EnMin= -541.748215014574     IErMin=13 ErrMin= 1.60D-08
 ErrMax= 1.60D-08  0.00D+00 EMaxC= 1.00D-01 BMatC= 1.08D-13 BMatP= 7.55D-13
 IDIUse=1 WtCom= 1.00D+00 WtEn= 0.00D+00
 Coeff-Com: -0.918D-06 0.189D-05 0.109D-05-0.229D-05-0.111D-05-0.111D-03
 Coeff-Com: -0.822D-03-0.166D-02-0.493D-02 0.107D-01 0.628D-01 0.363D+00
 Coeff-Com:  0.571D+00
 Coeff:     -0.918D-06 0.189D-05 0.109D-05-0.229D-05-0.111D-05-0.111D-03
 Coeff:     -0.822D-03-0.166D-02-0.493D-02 0.107D-01 0.628D-01 0.363D+00
 Coeff:      0.571D+00
 Gap=     0.195 Goal=   None    Shift=    0.000
 RMSDP=2.21D-09 MaxDP=1.48D-07 DE=-1.21D-11 OVMax= 7.28D-08

 Error on total polarization charges =  0.01717
 SCF Done:  E(RN12SX) =  -541.748215015     A.U. after   13 cycles
            NFock= 13  Conv=0.22D-08     -V/T= 2.0063
 KE= 5.383828375282D+02 PE=-3.030597543419D+03 EE= 1.063622859125D+03
 Leave Link  502 at Sun Jun 20 19:37:48 2021, MaxMem=  3355443200 cpu:      3218.5
 (Enter /usr/local/gqt/g09/l601.exe)
 Copying SCF densities to generalized density rwf, IOpCl= 0 IROHF=0.

 **********************************************************************

            Population analysis using the SCF density.

 **********************************************************************

 Orbital symmetries:
       Occupied  (A) (A) (A) (A) (A) (A) (A) (A) (A) (A) (A) (A)
                 (A) (A) (A) (A) (A) (A) (A) (A) (A) (A) (A) (A)
                 (A) (A) (A) (A) (A) (A) (A) (A) (A) (A) (A) (A)
                 (A) (A) (A) (A) (A) (A) (A) (A) (A) (A) (A) (A)
                 (A) (A) (A)
       Virtual   (A) (A) (A) (A) (A) (A) (A) (A) (A) (A) (A) (A)
                 (A) (A) (A) (A) (A) (A) (A) (A) (A) (A) (A) (A)
                 (A) (A) (A) (A) (A) (A) (A) (A) (A) (A) (A) (A)
                 (A) (A) (A) (A) (A) (A) (A) (A) (A) (A) (A) (A)
                 (A) (A) (A) (A) (A) (A) (A) (A) (A) (A) (A) (A)
                 (A) (A) (A) (A) (A) (A) (A) (A) (A) (A) (A) (A)
                 (A) (A) (A) (A) (A) (A) (A) (A) (A) (A) (A) (A)
                 (A) (A) (A) (A) (A) (A) (A) (A) (A) (A) (A) (A)
                 (A) (A) (A) (A) (A) (A) (A) (A) (A) (A) (A) (A)
                 (A) (A) (A) (A) (A) (A) (A) (A) (A) (A) (A) (A)
                 (A) (A) (A) (A) (A) (A) (A) (A) (A) (A) (A) (A)
                 (A) (A) (A) (A) (A) (A) (A) (A) (A) (A) (A) (A)
                 (A) (A) (A) (A) (A) (A) (A) (A) (A) (A) (A) (A)
                 (A) (A) (A) (A) (A) (A) (A) (A) (A) (A) (A) (A)
                 (A) (A) (A) (A) (A) (A) (A) (A) (A) (A) (A) (A)
                 (A) (A) (A) (A) (A) (A) (A) (A) (A) (A) (A) (A)
                 (A) (A) (A) (A) (A) (A) (A) (A) (A) (A) (A) (A)
                 (A) (A) (A) (A) (A) (A) (A) (A) (A) (A) (A) (A)
                 (A) (A) (A) (A) (A) (A) (A) (A) (A) (A) (A) (A)
                 (A) (A) (A) (A) (A) (A) (A) (A) (A) (A) (A) (A)
                 (A) (A) (A) (A) (A) (A) (A) (A) (A) (A) (A) (A)
                 (A) (A) (A) (A) (A) (A) (A) (A) (A) (A) (A) (A)
                 (A) (A) (A) (A) (A) (A) (A) (A) (A) (A) (A) (A)
                 (A) (A) (A) (A) (A) (A) (A) (A) (A) (A) (A) (A)
                 (A) (A) (A) (A) (A) (A) (A) (A) (A) (A) (A) (A)
                 (A) (A) (A) (A) (A) (A) (A) (A) (A) (A) (A) (A)
                 (A) (A) (A) (A) (A) (A) (A) (A) (A) (A) (A) (A)
                 (A) (A) (A) (A) (A) (A) (A) (A) (A) (A) (A) (A)
                 (A) (A) (A) (A) (A) (A) (A) (A) (A) (A) (A) (A)
                 (A) (A) (A) (A) (A) (A) (A) (A) (A) (A) (A) (A)
                 (A) (A) (A) (A) (A) (A) (A)
 The electronic state is 1-A.
 Alpha  occ. eigenvalues --  -14.37429 -14.37295 -10.26576 -10.26449 -10.24651
 Alpha  occ. eigenvalues --  -10.24623 -10.22770 -10.20319 -10.20252 -10.20245
 Alpha  occ. eigenvalues --  -10.20069 -10.19842 -10.19731  -0.99223  -0.90338
 Alpha  occ. eigenvalues --   -0.81960  -0.77043  -0.75094  -0.69046  -0.68878
 Alpha  occ. eigenvalues --   -0.68729  -0.68268  -0.62632  -0.61870  -0.53994
 Alpha  occ. eigenvalues --   -0.51493  -0.49313  -0.49086  -0.46089  -0.44685
 Alpha  occ. eigenvalues --   -0.44250  -0.43776  -0.43432  -0.41873  -0.40666
 Alpha  occ. eigenvalues --   -0.39632  -0.38293  -0.38004  -0.37149  -0.36361
 Alpha  occ. eigenvalues --   -0.35887  -0.35443  -0.35052  -0.34877  -0.34369
 Alpha  occ. eigenvalues --   -0.33121  -0.32841  -0.32120  -0.30606  -0.20902
 Alpha  occ. eigenvalues --   -0.20165
 Alpha virt. eigenvalues --   -0.00651   0.00313   0.00757   0.01017   0.02199
 Alpha virt. eigenvalues --    0.02354   0.02374   0.02445   0.03453   0.04014
 Alpha virt. eigenvalues --    0.04389   0.05014   0.05054   0.05811   0.06121
 Alpha virt. eigenvalues --    0.06194   0.06534   0.06983   0.08183   0.08426
 Alpha virt. eigenvalues --    0.08471   0.08529   0.09590   0.10069   0.10451
 Alpha virt. eigenvalues --    0.11002   0.11841   0.12328   0.12430   0.12957
 Alpha virt. eigenvalues --    0.13270   0.13361   0.13829   0.14897   0.14970
 Alpha virt. eigenvalues --    0.15603   0.16132   0.16357   0.17003   0.17383
 Alpha virt. eigenvalues --    0.17857   0.17993   0.18838   0.19088   0.19188
 Alpha virt. eigenvalues --    0.19537   0.19817   0.19926   0.20936   0.21726
 Alpha virt. eigenvalues --    0.21998   0.22478   0.22847   0.23282   0.23458
 Alpha virt. eigenvalues --    0.23590   0.24177   0.24419   0.24585   0.25473
 Alpha virt. eigenvalues --    0.25719   0.26016   0.26314   0.26645   0.26810
 Alpha virt. eigenvalues --    0.27306   0.27771   0.28102   0.28232   0.28805
 Alpha virt. eigenvalues --    0.28839   0.29790   0.30750   0.31439   0.31687
 Alpha virt. eigenvalues --    0.31886   0.32793   0.33439   0.34342   0.35314
 Alpha virt. eigenvalues --    0.35588   0.37446   0.38279   0.38997   0.40934
 Alpha virt. eigenvalues --    0.41714   0.43295   0.43533   0.44335   0.44855
 Alpha virt. eigenvalues --    0.47209   0.47595   0.48359   0.49136   0.50162
 Alpha virt. eigenvalues --    0.50840   0.52099   0.52221   0.53366   0.53809
 Alpha virt. eigenvalues --    0.54646   0.55064   0.55497   0.56531   0.57129
 Alpha virt. eigenvalues --    0.58569   0.59581   0.60161   0.61337   0.62113
 Alpha virt. eigenvalues --    0.63169   0.63807   0.64578   0.65078   0.65803
 Alpha virt. eigenvalues --    0.66386   0.67663   0.67990   0.68112   0.68452
 Alpha virt. eigenvalues --    0.68618   0.69033   0.70112   0.70546   0.72528
 Alpha virt. eigenvalues --    0.72914   0.73338   0.73821   0.74686   0.75009
 Alpha virt. eigenvalues --    0.75155   0.76136   0.76379   0.77757   0.78003
 Alpha virt. eigenvalues --    0.78186   0.78542   0.79240   0.80317   0.81367
 Alpha virt. eigenvalues --    0.81816   0.84189   0.85908   0.88532   0.89003
 Alpha virt. eigenvalues --    0.90741   0.92435   0.93409   0.95580   0.97997
 Alpha virt. eigenvalues --    0.98825   1.01416   1.04211   1.05838   1.07897
 Alpha virt. eigenvalues --    1.08040   1.10298   1.11628   1.14380   1.15221
 Alpha virt. eigenvalues --    1.17494   1.19198   1.20964   1.21976   1.26337
 Alpha virt. eigenvalues --    1.28049   1.28911   1.29587   1.32801   1.35211
 Alpha virt. eigenvalues --    1.36375   1.41303   1.42663   1.43598   1.44517
 Alpha virt. eigenvalues --    1.45397   1.46150   1.46983   1.47419   1.47649
 Alpha virt. eigenvalues --    1.48021   1.48917   1.49576   1.49772   1.51397
 Alpha virt. eigenvalues --    1.51970   1.53289   1.53729   1.54686   1.55286
 Alpha virt. eigenvalues --    1.56584   1.57118   1.57743   1.58688   1.58885
 Alpha virt. eigenvalues --    1.59184   1.61881   1.63351   1.64396   1.65090
 Alpha virt. eigenvalues --    1.65514   1.65608   1.67251   1.67732   1.69056
 Alpha virt. eigenvalues --    1.69457   1.69690   1.70255   1.71426   1.71774
 Alpha virt. eigenvalues --    1.73134   1.73814   1.74914   1.75459   1.76323
 Alpha virt. eigenvalues --    1.77365   1.78859   1.79844   1.81269   1.82056
 Alpha virt. eigenvalues --    1.84246   1.84853   1.85305   1.85401   1.85856
 Alpha virt. eigenvalues --    1.91174   1.92376   1.94869   1.96488   1.96790
 Alpha virt. eigenvalues --    1.98547   2.00291   2.01495   2.01887   2.02716
 Alpha virt. eigenvalues --    2.04221   2.05630   2.06346   2.08962   2.11430
 Alpha virt. eigenvalues --    2.12326   2.13344   2.15494   2.17717   2.19631
 Alpha virt. eigenvalues --    2.21361   2.22765   2.22953   2.25144   2.26616
 Alpha virt. eigenvalues --    2.26842   2.27676   2.28817   2.31581   2.32974
 Alpha virt. eigenvalues --    2.35169   2.39020   2.41593   2.42380   2.44938
 Alpha virt. eigenvalues --    2.46383   2.46500   2.49026   2.49850   2.51065
 Alpha virt. eigenvalues --    2.51551   2.51648   2.52488   2.53010   2.53166
 Alpha virt. eigenvalues --    2.53700   2.54497   2.55447   2.56251   2.56821
 Alpha virt. eigenvalues --    2.57199   2.57761   2.58542   2.59467   2.60254
 Alpha virt. eigenvalues --    2.60522   2.60906   2.61931   2.63516   2.64611
 Alpha virt. eigenvalues --    2.65698   2.67460   2.68075   2.70099   2.72570
 Alpha virt. eigenvalues --    2.73094   2.74481   2.75317   2.75852   2.75999
 Alpha virt. eigenvalues --    2.77097   2.77977   2.79140   2.81268   2.82094
 Alpha virt. eigenvalues --    2.84644   2.84747   2.88360   2.90787   2.92438
 Alpha virt. eigenvalues --    2.95904   2.98363   3.00250   3.00340   3.04271
 Alpha virt. eigenvalues --    3.07710   3.08008   3.08851   3.10003   3.13140
 Alpha virt. eigenvalues --    3.15408   3.22146   3.22430   3.24946   3.29426
 Alpha virt. eigenvalues --    3.31244   3.40968   3.45117   3.55674   3.61116
 Alpha virt. eigenvalues --    3.62744   3.68926   3.75015   3.78989   3.79288
 Alpha virt. eigenvalues --    3.79811   3.80456   3.82594   3.83774   3.84227
 Alpha virt. eigenvalues --    3.84702   3.85386   3.85708   3.88308   3.89352
 Alpha virt. eigenvalues --    3.91820   3.93763   3.96604   4.00561   4.03120
 Alpha virt. eigenvalues --    4.27043   4.30644   4.32393   4.33518   4.33541
 Alpha virt. eigenvalues --    4.68591   4.94103   5.00987   5.17212  23.68130
 Alpha virt. eigenvalues --   23.69712  23.78344  23.79853  23.82795  23.88465
 Alpha virt. eigenvalues --   23.88700  23.88849  23.90534  23.91156  23.92386
 Alpha virt. eigenvalues --   35.31332  35.46011
          Condensed to atoms (all electrons):
               1          2          3          4          5          6
     1  C    6.163229  -0.248379  -0.002203   0.021062  -0.079562  -0.065251
     2  C   -0.248379   6.076894  -0.054060   0.099754  -0.016199  -0.159014
     3  N   -0.002203  -0.054060   7.352926   0.342836  -0.210074  -0.428546
     4  C    0.021062   0.099754   0.342836   6.473849   0.386787  -0.566414
     5  N   -0.079562  -0.016199  -0.210074   0.386787   7.308645  -0.049645
     6  C   -0.065251  -0.159014  -0.428546  -0.566414  -0.049645   8.206318
     7  C   -0.035654   0.031597  -0.194210   0.228186   0.016650  -0.159543
     8  C    0.078722  -0.104482  -0.002800  -0.159748  -0.035901   0.017116
     9  C   -0.020708   0.036999  -0.011296   0.015980   0.045470  -0.336415
    10  C   -0.130912  -0.114295  -0.088749  -0.496490  -0.377497  -0.018415
    11  C    0.008033   0.003174   0.038022  -0.036222   0.021877   0.026474
    12  C   -0.008423   0.010200  -0.032463   0.208959  -0.209065  -0.024871
    13  C   -0.032987   0.027059   0.015163  -0.085662  -0.078106  -0.001946
    14  H    0.457583  -0.059023   0.008865  -0.025098  -0.046148  -0.006250
    15  H    0.435483  -0.042145   0.020167  -0.011993  -0.049638   0.010429
    16  H   -0.054767   0.462724  -0.053146  -0.040808   0.007870   0.012545
    17  H   -0.053107   0.432513  -0.044329   0.004992   0.022686  -0.028089
    18  H    0.000150  -0.000382  -0.015446  -0.023040  -0.004991   0.065505
    19  H    0.001392  -0.001573   0.027930   0.029549  -0.001203  -0.137800
    20  H   -0.001388   0.002830  -0.020455  -0.020875   0.002053   0.054893
    21  H    0.003113   0.006260  -0.015964   0.001350   0.002362   0.009594
    22  H   -0.000104   0.004944   0.038085   0.005295   0.000991  -0.144790
    23  H   -0.000729  -0.007936  -0.029757  -0.000622  -0.002521   0.059847
    24  H    0.001163   0.006934   0.021208  -0.001265  -0.001082  -0.084157
    25  H   -0.000961  -0.018937  -0.010273   0.005158   0.000121   0.013985
    26  H    0.007411   0.005941  -0.041887  -0.004699  -0.000631   0.069755
    27  H    0.010255   0.004971  -0.000871  -0.006798  -0.037584  -0.000309
    28  H    0.004873   0.001460  -0.000570   0.000740   0.022983  -0.000209
    29  H   -0.013998  -0.000906   0.000324   0.006859  -0.021282   0.001867
    30  H    0.002810  -0.001878  -0.000498  -0.021402  -0.015256  -0.000538
    31  H   -0.001052   0.000954  -0.000100   0.027829   0.032125   0.000725
    32  H    0.001418  -0.000767  -0.001993  -0.016442  -0.023043   0.000839
    33  H    0.001708   0.006567   0.000931   0.005397  -0.022196  -0.000479
    34  H   -0.009347  -0.001258  -0.002048  -0.003027  -0.022332   0.001128
    35  H    0.006684  -0.000012   0.000240   0.002242   0.034227  -0.000004
               7          8          9         10         11         12
     1  C   -0.035654   0.078722  -0.020708  -0.130912   0.008033  -0.008423
     2  C    0.031597  -0.104482   0.036999  -0.114295   0.003174   0.010200
     3  N   -0.194210  -0.002800  -0.011296  -0.088749   0.038022  -0.032463
     4  C    0.228186  -0.159748   0.015980  -0.496490  -0.036222   0.208959
     5  N    0.016650  -0.035901   0.045470  -0.377497   0.021877  -0.209065
     6  C   -0.159543   0.017116  -0.336415  -0.018415   0.026474  -0.024871
     7  C    6.315119  -0.449836  -0.368214  -0.023002  -0.026537   0.065064
     8  C   -0.449836   6.139087  -0.300916   0.001661   0.003471  -0.012943
     9  C   -0.368214  -0.300916   6.187641   0.020915   0.003810  -0.021079
    10  C   -0.023002   0.001661   0.020915   7.929079  -0.317257   0.001686
    11  C   -0.026537   0.003471   0.003810  -0.317257   6.260797  -0.391222
    12  C    0.065064  -0.012943  -0.021079   0.001686  -0.391222   6.313774
    13  C   -0.009227   0.007838   0.003653   0.095513  -0.376157  -0.499420
    14  H   -0.000330   0.005881  -0.000920  -0.006411  -0.002212  -0.008842
    15  H   -0.001879  -0.002529   0.001091  -0.010618   0.022402   0.000445
    16  H   -0.013530   0.013788   0.001828  -0.002984   0.000556  -0.001951
    17  H    0.005440  -0.007284   0.018980   0.006253   0.000344  -0.001372
    18  H    0.360159   0.025585  -0.032562  -0.001119  -0.000314  -0.000888
    19  H    0.445221  -0.006378   0.001679   0.000765   0.000146  -0.000931
    20  H    0.352150  -0.017358   0.022571   0.000548   0.000836  -0.000815
    21  H    0.029154   0.356220  -0.018370   0.000128  -0.000033   0.000103
    22  H   -0.022702   0.479204   0.012257   0.000131   0.000005   0.000026
    23  H   -0.018987   0.354352   0.020946   0.000675  -0.000126  -0.000244
    24  H   -0.023382  -0.002753   0.458750  -0.000331   0.000012   0.000047
    25  H   -0.003838   0.016973   0.373930   0.001178  -0.000100  -0.000437
    26  H    0.014918  -0.012479   0.332582  -0.000001  -0.000043   0.000167
    27  H    0.000179  -0.000123   0.000020   0.059095   0.336606   0.015522
    28  H    0.000038   0.000058   0.000016  -0.084004   0.457324  -0.028221
    29  H   -0.000306  -0.000108  -0.000077   0.031265   0.364104  -0.007262
    30  H   -0.000798  -0.000274   0.000478   0.049412   0.024773   0.361463
    31  H   -0.000783   0.000059   0.000151  -0.155148   0.007820   0.454787
    32  H   -0.001206   0.000669  -0.000320   0.072764  -0.031183   0.352736
    33  H    0.000255  -0.000123   0.000070   0.014515  -0.019252   0.029844
    34  H   -0.000319   0.000008  -0.000239   0.048311   0.022461  -0.011803
    35  H    0.000008  -0.000025   0.000016  -0.133016   0.013073  -0.024786
              13         14         15         16         17         18
     1  C   -0.032987   0.457583   0.435483  -0.054767  -0.053107   0.000150
     2  C    0.027059  -0.059023  -0.042145   0.462724   0.432513  -0.000382
     3  N    0.015163   0.008865   0.020167  -0.053146  -0.044329  -0.015446
     4  C   -0.085662  -0.025098  -0.011993  -0.040808   0.004992  -0.023040
     5  N   -0.078106  -0.046148  -0.049638   0.007870   0.022686  -0.004991
     6  C   -0.001946  -0.006250   0.010429   0.012545  -0.028089   0.065505
     7  C   -0.009227  -0.000330  -0.001879  -0.013530   0.005440   0.360159
     8  C    0.007838   0.005881  -0.002529   0.013788  -0.007284   0.025585
     9  C    0.003653  -0.000920   0.001091   0.001828   0.018980  -0.032562
    10  C    0.095513  -0.006411  -0.010618  -0.002984   0.006253  -0.001119
    11  C   -0.376157  -0.002212   0.022402   0.000556   0.000344  -0.000314
    12  C   -0.499420  -0.008842   0.000445  -0.001951  -0.001372  -0.000888
    13  C    6.155598   0.022023  -0.017332   0.005621  -0.001840   0.000711
    14  H    0.022023   0.513064  -0.038897   0.008547  -0.010474  -0.000007
    15  H   -0.017332  -0.038897   0.500309  -0.011743   0.001763   0.000006
    16  H    0.005621   0.008547  -0.011743   0.515324  -0.038772  -0.000019
    17  H   -0.001840  -0.010474   0.001763  -0.038772   0.496253   0.000058
    18  H    0.000711  -0.000007   0.000006  -0.000019   0.000058   0.503697
    19  H    0.000133  -0.000003  -0.000002  -0.000022   0.000017  -0.027078
    20  H   -0.000456   0.000010   0.000000   0.000027   0.000002  -0.023488
    21  H   -0.000105  -0.000069   0.000016  -0.000281   0.001528  -0.000503
    22  H   -0.000025   0.000004  -0.000001   0.000071  -0.000242   0.000015
    23  H    0.000062  -0.000053   0.000004  -0.000065   0.000601   0.000006
    24  H    0.000059   0.000002  -0.000001   0.000049  -0.000094   0.000147
    25  H    0.000160   0.000006  -0.000027   0.000132   0.000172   0.003563
    26  H   -0.000086   0.000045  -0.000043   0.001662  -0.001998   0.000044
    27  H   -0.008634   0.002148  -0.001402   0.000026  -0.000016   0.000000
    28  H   -0.000738  -0.000178  -0.000052  -0.000001   0.000000   0.000000
    29  H    0.016733   0.000684   0.000038   0.000007  -0.000018  -0.000001
    30  H   -0.022636   0.000041  -0.000009   0.000023   0.000002   0.000018
    31  H   -0.008261   0.000022  -0.000004  -0.000002  -0.000002   0.000002
    32  H    0.021831  -0.000032   0.000035  -0.000007   0.000003  -0.000015
    33  H    0.350446  -0.000739   0.004171  -0.000132   0.000030   0.000000
    34  H    0.354602  -0.000035   0.000563  -0.000049   0.000001   0.000001
    35  H    0.475258   0.000014  -0.000076   0.000003  -0.000001   0.000000
              19         20         21         22         23         24
     1  C    0.001392  -0.001388   0.003113  -0.000104  -0.000729   0.001163
     2  C   -0.001573   0.002830   0.006260   0.004944  -0.007936   0.006934
     3  N    0.027930  -0.020455  -0.015964   0.038085  -0.029757   0.021208
     4  C    0.029549  -0.020875   0.001350   0.005295  -0.000622  -0.001265
     5  N   -0.001203   0.002053   0.002362   0.000991  -0.002521  -0.001082
     6  C   -0.137800   0.054893   0.009594  -0.144790   0.059847  -0.084157
     7  C    0.445221   0.352150   0.029154  -0.022702  -0.018987  -0.023382
     8  C   -0.006378  -0.017358   0.356220   0.479204   0.354352  -0.002753
     9  C    0.001679   0.022571  -0.018370   0.012257   0.020946   0.458750
    10  C    0.000765   0.000548   0.000128   0.000131   0.000675  -0.000331
    11  C    0.000146   0.000836  -0.000033   0.000005  -0.000126   0.000012
    12  C   -0.000931  -0.000815   0.000103   0.000026  -0.000244   0.000047
    13  C    0.000133  -0.000456  -0.000105  -0.000025   0.000062   0.000059
    14  H   -0.000003   0.000010  -0.000069   0.000004  -0.000053   0.000002
    15  H   -0.000002   0.000000   0.000016  -0.000001   0.000004  -0.000001
    16  H   -0.000022   0.000027  -0.000281   0.000071  -0.000065   0.000049
    17  H    0.000017   0.000002   0.001528  -0.000242   0.000601  -0.000094
    18  H   -0.027078  -0.023488  -0.000503   0.000015   0.000006   0.000147
    19  H    0.526802  -0.028547   0.000128   0.001823  -0.000140   0.001383
    20  H   -0.028547   0.504133  -0.000088  -0.000263   0.002855   0.000034
    21  H    0.000128  -0.000088   0.511441  -0.026157  -0.025112   0.000224
    22  H    0.001823  -0.000263  -0.026157   0.507299  -0.024500   0.000627
    23  H   -0.000140   0.002855  -0.025112  -0.024500   0.502936   0.000053
    24  H    0.001383   0.000034   0.000224   0.000627   0.000053   0.493285
    25  H   -0.000305  -0.000011   0.000021  -0.000090  -0.000451  -0.022028
    26  H   -0.000030  -0.000496   0.001991  -0.000032   0.000047  -0.023256
    27  H    0.000000   0.000000   0.000000   0.000000  -0.000001   0.000000
    28  H    0.000000   0.000000   0.000000   0.000000   0.000000   0.000000
    29  H    0.000000   0.000003  -0.000001   0.000000   0.000002   0.000000
    30  H    0.000001  -0.000004   0.000000   0.000000   0.000000   0.000000
    31  H    0.000001   0.000002   0.000000   0.000000   0.000000   0.000000
    32  H    0.000004   0.000023   0.000000   0.000000   0.000001   0.000000
    33  H    0.000000   0.000000   0.000000   0.000000   0.000000   0.000000
    34  H    0.000000   0.000000   0.000000   0.000000   0.000000   0.000000
    35  H    0.000000   0.000000   0.000000   0.000000   0.000000   0.000000
              25         26         27         28         29         30
     1  C   -0.000961   0.007411   0.010255   0.004873  -0.013998   0.002810
     2  C   -0.018937   0.005941   0.004971   0.001460  -0.000906  -0.001878
[...]
 949,0.00020157,0.00000299,0.00012617,-0.00014890,-0.00008688,-0.000461
 18,-0.00042305,0.00022083,0.00123099,0.00078968,0.00066801,0.00043916,
 -0.00087281,0.00080278,-0.00006412,0.00002780,0.00003960,0.00001039,0.
 00001243,0.00000030,0.00000639,-0.00000579,-0.00001344,0.00000700,0.00
 000794,0.00000428,0.00466665,-0.00643941,-0.01959734,-0.00072843,0.004
 90828,-0.00150011,0.05604610,-0.06446071,-0.29169154,-0.00045060,-0.00
 127973,0.00057216,0.00007830,-0.00007238,0.00010737,-0.00001111,-0.000
 05592,0.00001440,-0.00002257,-0.00005688,0.00004608,-0.00000766,-0.000
 03878,0.00002529,0.00000389,0.00000121,0.00001912,0.00002912,-0.000012
 25,-0.00000632,-0.00000563,-0.00002081,-0.00001684,0.00000055,-0.00000
 390,0.00000466,0.00000743,-0.00000018,0.00000387,-0.00000193,0.0000016
 1,-0.00000019,0.00000561,-0.00000355,-0.00000441,-0.00000044,0.0000000
 8,0.00000245,-0.00000165,-0.00000492,0.00000082,0.00035199,-0.00028168
 ,-0.00136731,0.00003948,-0.00008858,0.00037928,-0.00007587,-0.00005777
 ,0.00030671,-0.06310262,0.06880744,0.31714803,0.00002752,-0.00058341,0
 .00053375,-0.00030901,0.00009575,-0.00009433,-0.00010983,0.00075052,-0
 .00054908,-0.00097463,0.00067714,0.00002308,0.00021301,-0.00023199,-0.
 00001152,0.00032795,0.00005225,-0.00010634,-0.00006990,0.00000990,0.00
 003007,-0.00005704,0.00000354,0.00005635,-0.00007958,-0.00003248,0.000
 00548,-0.00420354,-0.00101824,0.00140793,-0.00008084,-0.00031929,0.000
 65589,-0.28776115,0.08534739,0.01005036,0.00006339,-0.00107400,0.00038
 384,-0.00001889,0.00005322,-0.00010092,0.00003758,0.00010635,-0.000042
 03,-0.00000554,0.00010478,-0.00001449,-0.00004033,0.00013254,-0.000036
 64,-0.00000629,-0.00000413,-0.00004635,-0.00006341,0.00000593,0.000009
 84,0.00001828,0.00002342,0.00001988,0.00001037,0.00000458,-0.00000600,
 -0.00003901,-0.00000490,-0.00001431,0.00000820,-0.00000345,0.00000022,
 -0.00002549,0.00002007,0.00002960,0.00000876,-0.00000436,-0.00000110,0
 .00001018,0.00000491,-0.00000572,0.00034531,-0.00009234,-0.00011689,0.
 00056717,-0.00018955,-0.00043314,0.00004015,0.00006696,0.00002714,-0.0
 0496527,0.00107118,-0.00048427,0.31225058,0.00125923,0.00055464,-0.000
 68499,0.00009474,-0.00020044,0.00023585,0.00070374,-0.00009148,-0.0000
 1307,-0.00194328,0.00028407,0.00080662,0.00027188,-0.00441913,0.003841
 49,-0.00015019,-0.00004472,0.00007077,0.00004033,-0.00001282,-0.000000
 41,0.00004199,0.00000240,-0.00002651,0.00004480,0.00001069,-0.00001188
 ,0.02458475,-0.00937234,-0.00276276,0.00028674,0.00059240,-0.00110287,
 0.08212223,-0.07635467,-0.00393780,0.00127630,0.00051110,-0.00039931,0
 .00001670,-0.00002501,0.00012455,-0.00006218,-0.00002629,-0.00001186,0
 .00005362,-0.00003566,-0.00002595,0.00015129,-0.00003603,-0.00007038,-
 0.00000127,0.00000238,-0.00000527,0.00000396,0.00001040,-0.00000851,0.
 00000231,0.00000112,-0.00000190,-0.00001149,0.00000387,-0.00000354,0.0
 0002103,0.00000546,0.00000495,-0.00000305,0.00000145,-0.00000020,0.000
 01321,-0.00000737,-0.00001667,-0.00000203,-0.00000041,-0.00000083,-0.0
 0000843,0.00000713,0.00000299,-0.00027967,0.00000323,-0.00022097,-0.00
 035357,0.00032709,0.00050364,-0.00008792,0.00002298,0.00003707,0.00662
 140,-0.00360686,0.00031590,-0.09202379,0.08265873,-0.00090158,0.000044
 91,0.00072286,-0.00002845,0.00012521,-0.00023541,-0.00044924,-0.000084
 67,0.00009581,0.00171648,0.00036910,0.00034976,-0.00014827,0.00347336,
 -0.00259017,0.00004048,0.00003414,-0.00000170,-0.00000747,0.00001020,0
 .00000350,-0.00001106,0.00000125,0.00000210,-0.00002017,-0.00000343,0.
 00000865,-0.01915068,0.00592637,-0.00058519,-0.00087159,0.00001447,0.0
 0046836,0.01239882,-0.00497517,-0.04789356,-0.00033866,-0.00069989,0.0
 0040970,0.00003198,-0.00004612,-0.00001887,0.00002896,0.00002531,0.000
 00498,-0.00004412,-0.00000328,0.00003659,-0.00010286,0.00000688,0.0000
 4900,-0.00000474,0.,0.00000813,0.00001108,-0.00001086,0.00000124,-0.00
 000137,-0.00001206,-0.00000844,0.00000565,-0.00000480,0.00000415,-0.00
 000501,-0.00000339,0.00000075,-0.00000030,0.00000005,-0.00000007,-0.00
 000375,0.00000138,0.00000630,0.00000038,-0.00000006,0.00000117,0.00000
 382,-0.00000609,-0.00000187,0.00013647,-0.00017068,0.00027702,0.000226
 17,0.00019724,-0.00058860,0.00003090,0.00002560,-0.00004792,0.02836416
 ,-0.00912150,0.00097451,-0.01265634,0.00113658,0.04900991,0.00007108,-
 0.00006329,-0.00019484,-0.00007330,0.00001506,-0.00008196,0.00031764,0
 .00001672,-0.00024334,-0.00124566,0.00164506,0.00096921,0.00037384,-0.
 00046931,0.00020560,0.00001721,0.00000923,0.00002080,0.00001701,0.0000
 0318,0.00000360,0.00000032,0.00000026,0.00000205,-0.00000119,-0.000001
 28,-0.00000217,0.00041521,0.00316454,0.00121265,0.00005666,0.00006494,
 -0.00003743,-0.15119389,-0.12815772,-0.05023762,0.00044356,0.00012330,
 0.00042974,0.00001026,0.00002754,-0.00000163,0.00002316,0.00000957,0.0
 0001924,0.00000067,-0.00000037,-0.00000054,0.00002823,0.00003801,-0.00
 002841,-0.00001124,0.00000798,0.00000170,-0.00000575,-0.00000424,-0.00
 000283,-0.00001169,0.00000586,-0.00000483,-0.00000060,0.00000114,-0.00
 000116,-0.00000100,0.00000009,-0.00000101,0.00000124,-0.00000067,-0.00
 000098,-0.00000077,0.00000222,0.00000029,0.00000295,-0.00000158,-0.000
 00035,-0.00000139,0.00000191,-0.00000018,0.00006714,0.00015312,0.00011
 116,-0.00004500,-0.00008744,0.00000317,0.00017453,0.00004417,0.0002949
 6,0.00377879,0.00622318,0.00242126,-0.01607707,-0.02157954,-0.00860985
 ,0.16220528,0.00010765,-0.00010262,0.00008922,-0.00020826,0.00007543,-
 0.00011350,0.00039242,0.00044162,-0.00049415,-0.00049307,-0.00011186,0
 .00092419,-0.00057727,0.00125674,-0.00037320,0.00012719,0.00001145,-0.
 00000355,-0.00001269,-0.00000245,0.00002766,-0.00000840,0.00000345,0.0
 0001807,-0.00002263,-0.00001195,-0.00000762,-0.01698189,-0.01954882,-0
 .00882869,0.00016751,0.00079964,-0.00163554,-0.12524212,-0.19395464,-0
 .05761770,0.00163735,-0.00370662,0.00435528,-0.00000326,0.00002700,-0.
 00004811,-0.00006042,0.00012787,-0.00004721,0.00001125,0.00003315,-0.0
 0000581,0.00001384,0.00009150,-0.00005571,-0.00000245,-0.00000333,-0.0
 0003881,-0.00004116,0.00000773,-0.00000147,0.00001418,0.00001500,0.000
 00921,0.00000206,0.00000405,-0.00000535,-0.00001204,-0.00000130,-0.000
 00364,0.00000334,-0.00000129,0.00000075,-0.00000858,0.00000696,0.00000
 918,0.00000361,-0.00000342,-0.00000144,0.00000222,0.00000612,-0.000001
 28,0.00035827,0.00013674,-0.00004103,0.00003798,0.00000969,0.00010898,
 0.00011466,0.00045832,0.00071558,-0.00435545,-0.00566642,-0.00154252,0
 .00735753,0.00931440,0.00391642,0.13876489,0.21091476,0.00005046,0.000
 09464,-0.00021661,-0.00004162,0.00002161,-0.00005140,0.00018595,0.0001
 2890,-0.00015729,-0.00099106,0.00024496,-0.00000273,0.00019766,-0.0012
 8180,0.00066043,0.00007431,0.00001899,-0.00000703,-0.00000570,0.000004
 40,0.00000403,-0.00001029,0.00000352,0.00001380,-0.00002029,-0.0000068
 2,-0.00000292,0.01373839,0.01445800,0.00464512,0.00066662,0.00048277,0
 .00134481,-0.05000087,-0.05940054,-0.07013856,-0.00045284,0.00289437,-
 0.00204819,-0.00000370,0.00002016,-0.00000788,0.00004631,-0.00003984,0
 .00001527,0.00000725,0.00002067,-0.00000925,0.00002172,0.00002726,-0.0
 0002647,0.00000810,-0.00000418,-0.00002248,-0.00002236,0.00000237,0.00
 000194,0.00001417,0.00000647,0.00000756,0.00000095,0.00000235,-0.00000
 306,-0.00000835,-0.00000120,-0.00000340,0.00000231,-0.00000169,-0.0000
 0084,-0.00000594,0.00000538,0.00000702,0.00000307,-0.00000225,-0.00000
 064,0.00000162,0.00000330,-0.00000089,-0.00010528,-0.00016417,0.000245
 92,0.00006688,-0.00004864,-0.00007628,-0.00025704,0.00000708,-0.000137
 10,-0.01916944,-0.02180125,-0.00791599,0.00148710,0.00212153,-0.000600
 34,0.05417071,0.06097419,0.07387412,-0.00115976,-0.00022311,-0.0003728
 9,-0.00002888,0.00020004,0.00012450,0.00037503,-0.00007845,-0.00001187
 ,-0.00046956,0.00007117,0.00021902,0.00160724,0.00049167,0.00015449,-0
 .00013372,-0.00001725,0.00000355,0.00003676,-0.00001141,-0.00000773,0.
 00002024,-0.00000374,-0.00002042,0.00004157,0.00001144,-0.00000453,0.0
 0043119,-0.01742241,0.01419235,0.00045134,0.00084272,0.00104939,-0.002
 73343,-0.00221542,-0.00172665,-0.04634338,0.00594277,-0.00456166,0.000
 06257,0.00011843,-0.00003347,-0.00248615,0.00090990,-0.00058695,0.0000
 1469,-0.00000946,-0.00002479,0.00008884,-0.00000703,-0.00001442,-0.000
 00055,0.00000005,0.00000255,0.00001003,0.00000976,-0.00000825,-0.00000
 322,0.00000013,0.00000038,-0.00000982,0.00000259,-0.00000222,0.0000148
 9,0.00000452,0.00000227,-0.00000129,0.00000210,0.00000071,0.00001158,-
 0.00000665,-0.00001404,-0.00000365,0.00000108,-0.00000018,-0.00000829,
 0.00000568,0.00000286,0.00019444,0.00018994,-0.00031883,-0.00000665,0.
 00004942,-0.00011176,-0.00011129,0.00020583,0.00012482,-0.00005572,0.0
 0021629,-0.00020353,0.00037361,-0.00019664,-0.00001577,0.00029156,-0.0
 0123116,0.00049645,0.05008463,0.00054734,-0.00052447,0.00004772,-0.000
 06382,0.00038605,0.00007539,-0.00002404,0.00011146,-0.00013182,0.00009
 755,0.00012227,-0.00003636,0.00056847,0.00000642,0.00012316,0.00000205
 ,0.00005576,-0.00005733,0.00001191,-0.00000269,-0.00000062,-0.00001158
 ,-0.00000353,0.00000648,-0.00000583,-0.00000505,0.00000402,0.00323661,
 -0.01822094,0.01415398,0.00045754,0.00077577,0.00134085,-0.00403961,-0
 .00272653,-0.00272199,0.00454502,-0.21831876,0.13039405,-0.00005644,0.
 00003093,-0.00004844,0.00111139,0.00051530,0.00019807,0.00001419,0.000
 01529,-0.00002226,0.00002992,0.00001825,-0.00000343,-0.00000165,-0.000
 00085,-0.00000743,-0.00000733,0.00000730,-0.00000216,0.00000181,0.0000
 0468,0.00000412,-0.00000353,0.00000257,-0.00000241,-0.00000444,0.00000
 145,-0.00000378,0.00000144,0.00000045,0.00000178,-0.00000180,0.0000040
 1,0.00000231,0.00000039,-0.00000072,-0.00000050,-0.00000227,0.00000452
 ,-0.00000022,0.00004287,0.00016280,-0.00084615,-0.00003459,-0.00001656
 ,-0.00003529,-0.00008000,0.00035119,-0.00011838,0.00000857,0.00020235,
 0.00014681,-0.00003076,0.00042895,-0.00022230,-0.00009048,-0.00123938,
 0.00105281,-0.00525327,0.23846444,-0.00052208,0.00079263,-0.00006765,0
 .00002995,-0.00022486,-0.00005563,0.00006462,-0.00004108,0.00002631,-0
 .00018283,-0.00006475,0.00020671,0.00093370,0.00068498,-0.00006625,-0.
 00000027,-0.00005826,0.00000710,-0.00001073,0.00000037,0.00000411,0.00
 000254,0.00000212,-0.00000183,0.00001345,0.00000734,-0.00000536,0.0008
 1344,-0.00918250,0.00504058,0.00022409,-0.00049660,0.00112669,-0.00082
 451,-0.00120902,0.00019051,-0.00376579,0.13187921,-0.14806454,-0.00008
 913,-0.00008412,-0.00007580,-0.00094148,-0.00041463,-0.00000370,0.0000
 0889,-0.00000554,0.00001940,-0.00001341,-0.00000260,0.00000189,0.00000
 060,0.00000022,0.00000168,0.00000156,-0.00000360,0.00000106,0.00000021
 ,-0.00000137,-0.00000105,0.00000186,-0.00000184,0.00000073,0.00000181,
 -0.00000117,0.00000149,-0.00000055,-0.00000024,-0.00000070,0.00000163,
 -0.00000471,-0.00000348,-0.00000041,0.00000108,-0.00000030,0.00000108,
 -0.00000218,0.00000114,-0.00010241,0.00018871,0.00014912,0.00004544,-0
 .00004113,-0.00004891,0.00009627,0.00014522,0.00017120,-0.00014078,-0.
 00017940,0.00027377,-0.00011338,-0.00004048,-0.00012550,-0.00022138,-0
 .00029586,0.00056464,0.00672203,-0.14363172,0.15699564,-0.00003157,0.0
 0010031,-0.00012077,0.00000102,0.00005207,-0.00001995,0.00031538,-0.00
 014506,-0.00000120,-0.00031607,-0.00006812,0.00028367,0.00240865,0.000
 72478,-0.00009933,-0.00008201,-0.00004613,0.00001234,0.00001153,-0.000
 00362,-0.00000202,0.00001322,0.00000035,-0.00001404,0.00003145,0.00001
 108,-0.00000743,0.00245914,-0.00697603,-0.02118292,-0.00270608,-0.0029
 9229,-0.00096335,0.00047484,0.00102135,-0.00043902,-0.05857329,0.01807
 179,0.05581081,0.00005070,-0.00002528,0.00005041,-0.00004184,0.0000361
 1,-0.00007008,-0.00001012,-0.00000943,0.00000121,0.00000094,-0.0000107
 8,0.00001227,0.00000124,0.00000084,0.00000389,0.00000796,0.00000123,-0
 .00000304,-0.00000092,-0.00000115,-0.00000213,-0.00000120,-0.00000111,
 0.00000109,0.00000942,0.00000063,0.00000390,-0.00000212,0.00000068,0.0
 0000053,0.00000819,-0.00000757,-0.00000911,-0.00000497,0.00000107,0.00
 000194,-0.00000192,-0.00000109,0.00000144,-0.00011441,0.00005142,0.000
 21854,0.00025818,-0.00017629,-0.00006873,0.00048276,-0.00065294,-0.001
 16680,0.00012067,0.00007604,0.00032448,0.00002403,-0.00003924,0.000111
 61,-0.00006430,0.00021729,-0.00001704,-0.00082167,-0.00055098,-0.00195
 642,0.06093281,-0.00017403,-0.00005161,-0.00017844,0.00003608,0.000040
 56,-0.00002774,0.00004237,-0.00009351,-0.00005190,-0.00038006,0.000104
 69,0.00040474,0.00178658,0.00123428,0.00106407,-0.00003068,-0.00002332
 ,-0.00001555,0.00000199,-0.00000125,0.00000196,-0.00000450,0.00000037,
 -0.00000053,0.00001732,0.00000670,-0.00000591,0.00627494,-0.00814025,-
 0.02163225,-0.00372254,-0.00307581,-0.00053970,0.00073938,0.00102431,-
 0.00108692,0.01661079,-0.06972505,-0.07237228,-0.00002258,-0.00006153,
 0.00002860,-0.00005828,-0.00006636,-0.00001411,-0.00001015,0.00000163,
 0.00002553,0.00000604,-0.00000430,0.00000610,-0.00000055,-0.00000057,0
 .00000118,0.00000177,0.00000032,-0.00000084,-0.00000030,-0.00000078,-0
 .00000043,-0.00000016,-0.00000114,0.00000113,0.00000068,-0.00000087,0.
 00000030,0.00000012,0.00000049,-0.00000020,0.00000377,-0.00000468,-0.0
 0000363,-0.00000009,0.00000189,0.00000117,-0.00000072,-0.00000071,0.00
 000197,-0.00002967,0.00021049,-0.00018437,-0.00005242,0.00011876,0.000
 39541,-0.00001158,-0.00021100,-0.00159402,-0.00020349,-0.00023899,0.00
 057367,-0.00003419,-0.00005265,0.00002712,-0.00003833,0.00028181,0.000
 24243,-0.00613108,0.00871725,0.02406422,-0.01612036,0.07422971,-0.0002
 5298,0.00020369,-0.00010036,-0.00002857,-0.00004156,-0.00003379,-0.000
 11029,0.00000815,-0.00004890,-0.00044194,0.00004187,0.00017549,0.00079
 262,0.00067813,0.00123970,0.00001817,0.00000043,-0.00001730,-0.0000061
 2,0.00000036,0.00000230,-0.00000728,0.00000033,0.00000536,-0.00000419,
 0.00000006,-0.00000574,0.00321845,-0.00213370,-0.01045053,-0.00247369,
 -0.00182927,0.00067825,0.00027472,0.00098406,0.00048592,0.05406133,-0.
 07380287,-0.28442501,0.00007310,-0.00000951,0.00005043,-0.00002346,-0.
 00007082,-0.00019043,-0.00000999,0.00001542,0.00002848,-0.00001618,0.0
 0000668,0.00000861,-0.00000104,-0.00000147,-0.00000152,-0.00000304,-0.
 00000057,0.00000123,0.00000097,0.00000099,0.00000134,0.00000224,-0.000
 00082,0.00000079,-0.00000370,-0.00000176,-0.00000061,0.00000086,0.0000
 0029,0.00000052,0.00000027,-0.00000032,0.00000342,-0.00000062,-0.00000
 069,0.00000425,0.00000139,-0.00000137,-0.00000068,0.00003094,0.0001465
 1,0.00033458,0.00016300,0.00010574,0.00017663,0.00013860,-0.00047628,-
 0.00066050,0.00004064,-0.00021909,0.00056534,-0.00007785,-0.00000219,0
 .00001550,-0.00019737,0.00000934,0.00020270,0.00401608,-0.00647939,-0.
 01643321,-0.05870519,0.08203200,0.30723986,0.00024598,-0.00081326,0.00
 088496,-0.00006053,-0.00027420,0.00002340,-0.00177094,0.00051063,0.000
 10179,0.00166990,0.00044117,-0.00174904,-0.00507930,-0.00454883,-0.000
 64308,0.00046762,0.00030836,-0.00004083,-0.00006906,0.00002708,0.00000
 657,-0.00006379,-0.00000799,0.00007014,-0.00017923,-0.00006915,0.00004
 308,-0.01733954,0.01047928,0.00210680,0.00033065,0.00092289,0.00064562
 ,0.00024930,0.00167194,0.00003689,-0.28037688,0.09487236,0.00385299,0.
 00002464,0.00007939,-0.00011916,0.00025896,0.00003111,0.00004905,0.000
 00342,0.00009013,0.00000612,-0.00005530,0.00005614,-0.00002317,-0.0000
 0099,-0.00000281,-0.00001440,-0.00003799,-0.00001450,0.00001799,0.0000
 0930,0.00000551,0.00000635,0.00001494,0.00000393,-0.00000344,-0.000051
 13,-0.00000477,-0.00001602,0.00000943,-0.00000353,-0.00000116,-0.00004
 140,0.00004499,0.00005469,0.00001086,-0.00000506,-0.00000053,0.0000149
 1,0.00000126,-0.00001151,-0.00002200,-0.00007794,-0.00002580,0.0004989
 6,-0.00037572,-0.00045359,0.00034148,-0.00019854,0.00009442,-0.0000004
 0,-0.00007967,-0.00003387,0.00056073,-0.00086793,0.00026434,0.00043651
 ,-0.00007239,-0.00012820,0.00026684,-0.00041463,-0.00007762,-0.0048396
 5,0.00150394,-0.00046988,0.30457372,0.00009294,-0.00075156,0.00022787,
 -0.00007447,0.00008731,0.00012088,-0.00076443,0.00036387,0.00016488,0.
 00009017,0.00015555,-0.00095315,-0.00483142,-0.00337298,-0.00032979,0.
 00012956,0.00019262,-0.00001212,-0.00000623,0.00000284,-0.00000577,-0.
 00001478,-0.00000392,0.00002122,-0.00007466,-0.00003031,0.00002303,-0.
 02017693,0.00799022,0.00093728,0.00019119,0.00060472,0.00033432,-0.000
 75084,0.00074970,0.00008192,0.09826596,-0.08583642,-0.00266906,0.00005
 331,0.00009375,-0.00006166,0.00005346,0.00051432,-0.00002850,0.0000237
 9,0.00003833,-0.00002158,0.00001383,0.00002307,-0.00001037,-0.00000099
 ,-0.00000140,-0.00000409,-0.00001225,0.00000017,0.00000373,0.00000212,
 0.00000251,0.00000401,0.00000053,0.00000345,-0.00000306,-0.00001446,0.
 00000077,-0.00000597,0.00000361,-0.00000014,0.00000052,-0.00001629,0.0
 0002061,0.00002375,0.00000363,-0.00000264,0.00000074,0.00000161,0.0000
 0341,-0.00000510,0.00008247,-0.00003413,-0.00008286,-0.00009320,-0.000
 12669,-0.00032690,0.00009810,0.00010008,0.00032751,0.00002069,-0.00006
 617,0.00007614,-0.00024107,-0.00045661,0.00002871,0.00017229,0.0003306
 7,-0.00008580,0.02353155,-0.00932998,-0.00177844,0.00746044,-0.0042188
 8,0.00083766,-0.10321920,0.09295387,-0.00011869,0.00015890,0.00017280,
 0.00004139,-0.00019305,-0.00006414,-0.00038496,0.00000662,0.00009601,-
 0.00032008,0.00010184,-0.00019759,-0.00124742,-0.00084114,0.00077859,0
 .00008818,0.00004955,0.00001217,-0.00002237,0.00000646,0.00000491,-0.0
 0000900,0.00000160,0.00001433,-0.00003470,-0.00001106,0.00000410,-0.00
 798563,0.00448656,-0.00144785,-0.00021153,0.00022970,0.00004340,0.0004
 8505,0.00051781,0.00002104,0.00503233,-0.00289964,-0.04687525,-0.00003
 084,-0.00003291,-0.00002072,0.00002285,-0.00030355,-0.00007400,-0.0000
 1154,0.00001664,0.00002308,-0.00002868,0.00000986,0.00000109,-0.000000
 29,-0.00000113,-0.00000312,-0.00000907,-0.00000539,0.00000506,0.000002
 46,0.00000089,0.00000122,0.00000475,-0.00000024,-0.00000037,-0.0000096
 0,-0.00000235,-0.00000222,0.00000194,-0.00000132,-0.00000139,-0.000007
 67,0.00000712,0.00001232,0.00000284,-0.00000048,0.00000172,0.00000380,
 -0.00000150,-0.00000211,-0.00006594,-0.00001295,-0.00004974,-0.0000924
 6,-0.00033518,-0.00023873,0.00016583,0.00011273,0.00012033,0.00006213,
 -0.00004261,0.00001775,0.00019016,0.00014638,0.00024765,0.00000174,0.0
 0000410,-0.00015803,-0.01907151,0.00682042,0.00017014,0.02801046,-0.01
 116277,0.00114793,-0.00445391,0.00317007,0.04623965\\0.00000383,0.0000
 0692,-0.00000436,-0.00000331,-0.00002057,0.00000669,-0.00000276,0.0000
 0648,-0.00000783,-0.00000038,-0.00000096,-0.00000188,-0.00000467,0.000
 00446,0.00000904,0.00001032,0.00000033,-0.00000834,-0.00000318,0.00000
 016,-0.00000688,0.00000127,-0.00000051,-0.00000078,-0.00000936,0.00000
 002,0.00000392,0.00000898,-0.00000563,-0.00000300,-0.00000190,0.000000
 33,0.00000429,-0.00000098,-0.00000003,0.00000191,-0.00000459,0.0000019
 1,-0.00000091,0.00000121,-0.00000046,0.00000039,-0.00000015,-0.0000007
 5,0.00000181,-0.00000012,0.00000535,-0.00000204,0.00000219,0.00000293,
 -0.00000065,-0.00000181,-0.00000106,0.00000226,0.00000019,-0.00000228,
 0.00000018,0.00000187,0.00000083,-0.00000084,-0.00000181,-0.00000401,-
 0.00000201,0.00000176,-0.00000040,0.00000042,-0.00000017,-0.00000199,-
 0.00000164,-0.00000088,0.00000181,0.00000028,0.00000031,-0.00000118,-0
 .00000259,-0.00000150,-0.00000106,-0.00000229,0.00000099,0.00000076,0.
 00000125,0.00000188,0.00000104,0.00000143,0.00000189,0.00000029,0.0000
 0132,-0.00000025,0.00000127,0.00000188,0.00000053,0.00000117,0.0000025
 5,0.00000193,0.00000071,0.00000174,-0.00000007,0.00000191,0.00000077,-
 0.00000078,0.00000124,0.00000146,-0.00000047,0.00000097,0.00000246\\\@


 OLD AGE AND TREACHERY WILL ALWAYS PREVAIL OVER YOUTH AND SKILL.
 Job cpu time:       1 days  9 hours 52 minutes  7.8 seconds.
 File lengths (MBytes):  RWF=    624 Int=      0 D2E=      0 Chk=     22 Scr=      1
 Normal termination of Gaussian 09 at Sun Jun 20 22:30:44 2021.
