 Entering Gaussian System, Link 0=g09
 Input=NHC15_new1.gjf
 Output=NHC15_new1.log
 Initial command:
 /usr/local/gqt/g09/l1.exe "/usr/local/gqt/lixogaussian/Gau-224107.inp" -scrdir="/usr/local/gqt/lixogaussian/"
 Entering Link 1 = /usr/local/gqt/g09/l1.exe PID=    224109.
  
 Copyright (c) 1988,1990,1992,1993,1995,1998,2003,2009,2013,
            Gaussian, Inc.  All Rights Reserved.
  
 This is part of the Gaussian(R) 09 program.  It is based on
 the Gaussian(R) 03 system (copyright 2003, Gaussian, Inc.),
 the Gaussian(R) 98 system (copyright 1998, Gaussian, Inc.),
 the Gaussian(R) 94 system (copyright 1995, Gaussian, Inc.),
 the Gaussian 92(TM) system (copyright 1992, Gaussian, Inc.),
 the Gaussian 90(TM) system (copyright 1990, Gaussian, Inc.),
 the Gaussian 88(TM) system (copyright 1988, Gaussian, Inc.),
 the Gaussian 86(TM) system (copyright 1986, Carnegie Mellon
 University), and the Gaussian 82(TM) system (copyright 1983,
 Carnegie Mellon University). Gaussian is a federally registered
 trademark of Gaussian, Inc.
  
 This software contains proprietary and confidential information,
 including trade secrets, belonging to Gaussian, Inc.
  
 This software is provided under written license and may be
 used, copied, transmitted, or stored only in accord with that
 written license.
  
 The following legend is applicable only to US Government
 contracts under FAR:
  
                    RESTRICTED RIGHTS LEGEND
  
 Use, reproduction and disclosure by the US Government is
 subject to restrictions as set forth in subparagraphs (a)
 and (c) of the Commercial Computer Software - Restricted
 Rights clause in FAR 52.227-19.
  
 Gaussian, Inc.
 340 Quinnipiac St., Bldg. 40, Wallingford CT 06492
  
  
 ---------------------------------------------------------------
 Warning -- This program may not be used in any manner that
 competes with the business of Gaussian, Inc. or will provide
 assistance to any competitor of Gaussian, Inc.  The licensee
 of this program is prohibited from giving any competitor of
 Gaussian, Inc. access to this program.  By using this program,
 the user acknowledges that Gaussian, Inc. is engaged in the
 business of creating and licensing software in the field of
 computational chemistry and represents and warrants to the
 licensee that it is not a competitor of Gaussian, Inc. and that
 it will not use this program in any manner prohibited above.
 ---------------------------------------------------------------
  

 Cite this work as:
 Gaussian 09, Revision D.01,
 M. J. Frisch, G. W. Trucks, H. B. Schlegel, G. E. Scuseria, 
 M. A. Robb, J. R. Cheeseman, G. Scalmani, V. Barone, B. Mennucci, 
 G. A. Petersson, H. Nakatsuji, M. Caricato, X. Li, H. P. Hratchian, 
 A. F. Izmaylov, J. Bloino, G. Zheng, J. L. Sonnenberg, M. Hada, 
 M. Ehara, K. Toyota, R. Fukuda, J. Hasegawa, M. Ishida, T. Nakajima, 
 Y. Honda, O. Kitao, H. Nakai, T. Vreven, J. A. Montgomery, Jr., 
 J. E. Peralta, F. Ogliaro, M. Bearpark, J. J. Heyd, E. Brothers, 
 K. N. Kudin, V. N. Staroverov, T. Keith, R. Kobayashi, J. Normand, 
 K. Raghavachari, A. Rendell, J. C. Burant, S. S. Iyengar, J. Tomasi, 
 M. Cossi, N. Rega, J. M. Millam, M. Klene, J. E. Knox, J. B. Cross, 
 V. Bakken, C. Adamo, J. Jaramillo, R. Gomperts, R. E. Stratmann, 
 O. Yazyev, A. J. Austin, R. Cammi, C. Pomelli, J. W. Ochterski, 
 R. L. Martin, K. Morokuma, V. G. Zakrzewski, G. A. Voth, 
 P. Salvador, J. J. Dannenberg, S. Dapprich, A. D. Daniels, 
 O. Farkas, J. B. Foresman, J. V. Ortiz, J. Cioslowski, 
 and D. J. Fox, Gaussian, Inc., Wallingford CT, 2013.
 
 ******************************************
 Gaussian 09:  ES64L-G09RevD.01 24-Apr-2013
                16-Feb-2022 
 ******************************************
 %nprocshared=20
 Will use up to   20 processors via shared memory.
 %mem=50GB
 %chk=NHC15_new1.chk
 ------------------------------------------------------------
 #p opt freq n12sx/6-311+g(d,p) scrf=(iefpcm,solvent=ethanol)
 ------------------------------------------------------------
 1/14=-1,18=20,19=15,26=3,38=1/1,3;
 2/9=110,12=2,17=6,18=5,40=1/2;
 3/5=4,6=6,7=111,11=2,16=1,25=1,30=1,70=2201,71=1,72=4,74=-69/1,2,3;
 4//1;
 5/5=2,38=5,53=4/2;
 6/7=2,8=2,9=2,10=2,28=1/1;
 7//1,2,3,16;
 1/14=-1,18=20,19=15,26=3/3(2);
 2/9=110/2;
 99//99;
 2/9=110/2;
 3/5=4,6=6,7=111,11=2,16=1,25=1,30=1,70=2205,71=1,72=4,74=-69/1,2,3;
 4/5=5,16=3,69=1/1;
 5/5=2,38=5,53=4/2;
 7//1,2,3,16;
 1/14=-1,18=20,19=15,26=3/3(-5);
 2/9=110/2;
 6/7=2,8=2,9=2,10=2,19=2,28=1/1;
 99/9=1/99;
 Leave Link    1 at Wed Feb 16 19:57:25 2022, MaxMem=  6710886400 cpu:         0.5
 (Enter /usr/local/gqt/g09/l101.exe)
 -----
 TITLE
 -----
 Symbolic Z-matrix:
 Charge =  0 Multiplicity = 1
 7                     0.78288  -2.00347   0.07332 
 6                    -0.54251  -2.10074  -0.14725 
 7                    -0.97486  -0.82156  -0.45268 
 6                     0.0231    0.09453  -0.44983 
 7                     1.10273  -0.66723  -0.12288 
 6                    -1.57523  -3.15579  -0.03764 
 8                    -2.66259  -2.62362   0.70086 
 6                    -3.28565  -1.50096   0.11425 
 6                    -2.37556  -0.64195  -0.8166 
 6                    -3.7871   -0.54438   1.1961 
 6                    -3.72241   0.79197   0.52447 
 6                    -2.91337   0.74204  -0.60622 
 6                    -4.34205   1.97813   0.88682 
 6                    -4.14302   3.10801   0.10485 
 6                    -3.34268   3.05204  -1.03156 
 6                    -2.72424   1.86411  -1.39633 
 6                     2.42523  -0.14555   0.00456 
 6                     3.25959  -0.1325   -1.11208 
 6                     4.54638   0.37359  -0.96278 
 6                     5.00733   0.85728   0.25592 
 6                     4.14675   0.82217   1.34774 
 6                     2.85237   0.32632   1.24567 
 6                     1.94245   0.30149   2.43448 
 6                     2.78596  -0.64853  -2.4354 
 6                     6.38752   1.42641   0.38664 
 1                    -1.91682  -3.49125  -1.02179 
 1                    -1.20603  -4.02006   0.50349 
 1                    -4.1263   -1.83809  -0.49671 
 1                    -2.48673  -0.96236  -1.85153 
 1                    -4.78243  -0.8035    1.54898 
 1                    -3.11374  -0.5841    2.0536 
 1                    -4.97663   2.0238    1.76008 
 1                    -4.62211   4.03752   0.3756 
 1                    -3.20661   3.93663  -1.63579 
 1                    -2.10602   1.81771  -2.28011 
 1                     5.20296   0.38855  -1.82194 
 1                     4.48982   1.18908   2.30554 
 1                     2.43942   0.7109    3.3092 
 1                     1.03975   0.88101   2.24733 
 1                     1.62252  -0.71316   2.66834 
 1                     2.55203  -1.71152  -2.38525 
 1                     1.87647  -0.13984  -2.75057 
 1                     3.54481  -0.50506  -3.19918 
 1                     7.05501   1.02744  -0.3732 
 1                     6.3706    2.51078   0.27067 
 1                     6.81297   1.21287   1.36465 
 
 NAtoms=     46 NQM=       46 NQMF=       0 NMMI=      0 NMMIF=      0
                NMic=       0 NMicF=      0.
                    Isotopes and Nuclear Properties:
 (Nuclear quadrupole moments (NQMom) in fm**2, nuclear magnetic moments (NMagM)
  in nuclear magnetons)

  Atom         1           2           3           4           5           6           7           8           9          10
 IAtWgt=          14          12          14          12          14          12          16          12          12          12
 AtmWgt=  14.0030740  12.0000000  14.0030740  12.0000000  14.0030740  12.0000000  15.9949146  12.0000000  12.0000000  12.0000000
 NucSpn=           2           0           2           0           2           0           0           0           0           0
 AtZEff=   0.0000000   0.0000000   0.0000000   0.0000000   0.0000000   0.0000000   0.0000000   0.0000000   0.0000000   0.0000000
 NQMom=    2.0440000   0.0000000   2.0440000   0.0000000   2.0440000   0.0000000   0.0000000   0.0000000   0.0000000   0.0000000
 NMagM=    0.4037610   0.0000000   0.4037610   0.0000000   0.4037610   0.0000000   0.0000000   0.0000000   0.0000000   0.0000000
 AtZNuc=   7.0000000   6.0000000   7.0000000   6.0000000   7.0000000   6.0000000   8.0000000   6.0000000   6.0000000   6.0000000

  Atom        11          12          13          14          15          16          17          18          19          20
 IAtWgt=          12          12          12          12          12          12          12          12          12          12
 AtmWgt=  12.0000000  12.0000000  12.0000000  12.0000000  12.0000000  12.0000000  12.0000000  12.0000000  12.0000000  12.0000000
 NucSpn=           0           0           0           0           0           0           0           0           0           0
 AtZEff=   0.0000000   0.0000000   0.0000000   0.0000000   0.0000000   0.0000000   0.0000000   0.0000000   0.0000000   0.0000000
 NQMom=    0.0000000   0.0000000   0.0000000   0.0000000   0.0000000   0.0000000   0.0000000   0.0000000   0.0000000   0.0000000
 NMagM=    0.0000000   0.0000000   0.0000000   0.0000000   0.0000000   0.0000000   0.0000000   0.0000000   0.0000000   0.0000000
 AtZNuc=   6.0000000   6.0000000   6.0000000   6.0000000   6.0000000   6.0000000   6.0000000   6.0000000   6.0000000   6.0000000

  Atom        21          22          23          24          25          26          27          28          29          30
 IAtWgt=          12          12          12          12          12           1           1           1           1           1
 AtmWgt=  12.0000000  12.0000000  12.0000000  12.0000000  12.0000000   1.0078250   1.0078250   1.0078250   1.0078250   1.0078250
 NucSpn=           0           0           0           0           0           1           1           1           1           1
 AtZEff=   0.0000000   0.0000000   0.0000000   0.0000000   0.0000000   0.0000000   0.0000000   0.0000000   0.0000000   0.0000000
 NQMom=    0.0000000   0.0000000   0.0000000   0.0000000   0.0000000   0.0000000   0.0000000   0.0000000   0.0000000   0.0000000
 NMagM=    0.0000000   0.0000000   0.0000000   0.0000000   0.0000000   2.7928460   2.7928460   2.7928460   2.7928460   2.7928460
 AtZNuc=   6.0000000   6.0000000   6.0000000   6.0000000   6.0000000   1.0000000   1.0000000   1.0000000   1.0000000   1.0000000

  Atom        31          32          33          34          35          36          37          38          39          40
 IAtWgt=           1           1           1           1           1           1           1           1           1           1
 AtmWgt=   1.0078250   1.0078250   1.0078250   1.0078250   1.0078250   1.0078250   1.0078250   1.0078250   1.0078250   1.0078250
 NucSpn=           1           1           1           1           1           1           1           1           1           1
 AtZEff=   0.0000000   0.0000000   0.0000000   0.0000000   0.0000000   0.0000000   0.0000000   0.0000000   0.0000000   0.0000000
 NQMom=    0.0000000   0.0000000   0.0000000   0.0000000   0.0000000   0.0000000   0.0000000   0.0000000   0.0000000   0.0000000
 NMagM=    2.7928460   2.7928460   2.7928460   2.7928460   2.7928460   2.7928460   2.7928460   2.7928460   2.7928460   2.7928460
 AtZNuc=   1.0000000   1.0000000   1.0000000   1.0000000   1.0000000   1.0000000   1.0000000   1.0000000   1.0000000   1.0000000

  Atom        41          42          43          44          45          46
 IAtWgt=           1           1           1           1           1           1
 AtmWgt=   1.0078250   1.0078250   1.0078250   1.0078250   1.0078250   1.0078250
 NucSpn=           1           1           1           1           1           1
 AtZEff=   0.0000000   0.0000000   0.0000000   0.0000000   0.0000000   0.0000000
 NQMom=    0.0000000   0.0000000   0.0000000   0.0000000   0.0000000   0.0000000
 NMagM=    2.7928460   2.7928460   2.7928460   2.7928460   2.7928460   2.7928460
 AtZNuc=   1.0000000   1.0000000   1.0000000   1.0000000   1.0000000   1.0000000
 Leave Link  101 at Wed Feb 16 19:57:25 2022, MaxMem=  6710886400 cpu:         6.7
 (Enter /usr/local/gqt/g09/l103.exe)

 GradGradGradGradGradGradGradGradGradGradGradGradGradGradGradGradGradGrad
 Berny optimization.
 Initialization pass.
                           ----------------------------
                           !    Initial Parameters    !
                           ! (Angstroms and Degrees)  !
 --------------------------                            --------------------------
 ! Name  Definition              Value          Derivative Info.                !
 --------------------------------------------------------------------------------
 ! R1    R(1,2)                  1.3471         estimate D2E/DX2                !
 ! R2    R(1,5)                  1.3879         estimate D2E/DX2                !
 ! R3    R(2,3)                  1.3844         estimate D2E/DX2                !
 ! R4    R(2,6)                  1.4804         estimate D2E/DX2                !
 ! R5    R(3,4)                  1.3547         estimate D2E/DX2                !
 ! R6    R(3,9)                  1.4583         estimate D2E/DX2                !
 ! R7    R(4,5)                  1.3612         estimate D2E/DX2                !
 ! R8    R(5,17)                 1.4274         estimate D2E/DX2                !
 ! R9    R(6,7)                  1.4181         estimate D2E/DX2                !
 ! R10   R(6,26)                 1.0944         estimate D2E/DX2                !
 ! R11   R(6,27)                 1.0845         estimate D2E/DX2                !
 ! R12   R(7,8)                  1.4116         estimate D2E/DX2                !
 ! R13   R(8,9)                  1.5597         estimate D2E/DX2                !
 ! R14   R(8,10)                 1.5287         estimate D2E/DX2                !
 ! R15   R(8,28)                 1.0925         estimate D2E/DX2                !
 ! R16   R(9,12)                 1.4996         estimate D2E/DX2                !
 ! R17   R(9,29)                 1.0891         estimate D2E/DX2                !
 ! R18   R(10,11)                1.497          estimate D2E/DX2                !
 ! R19   R(10,30)                1.0874         estimate D2E/DX2                !
 ! R20   R(10,31)                1.091          estimate D2E/DX2                !
 ! R21   R(11,12)                1.3912         estimate D2E/DX2                !
 ! R22   R(11,13)                1.3864         estimate D2E/DX2                !
 ! R23   R(12,16)                1.3853         estimate D2E/DX2                !
 ! R24   R(13,14)                1.3884         estimate D2E/DX2                !
 ! R25   R(13,32)                1.0804         estimate D2E/DX2                !
 ! R26   R(14,15)                1.3911         estimate D2E/DX2                !
 ! R27   R(14,33)                1.0802         estimate D2E/DX2                !
 ! R28   R(15,16)                1.3881         estimate D2E/DX2                !
 ! R29   R(15,34)                1.0799         estimate D2E/DX2                !
 ! R30   R(16,35)                1.0795         estimate D2E/DX2                !
 ! R31   R(17,18)                1.394          estimate D2E/DX2                !
 ! R32   R(17,22)                1.3948         estimate D2E/DX2                !
 ! R33   R(18,19)                1.3908         estimate D2E/DX2                !
 ! R34   R(18,24)                1.4973         estimate D2E/DX2                !
 ! R35   R(19,20)                1.3898         estimate D2E/DX2                !
 ! R36   R(19,36)                1.0814         estimate D2E/DX2                !
 ! R37   R(20,21)                1.3907         estimate D2E/DX2                !
 ! R38   R(20,25)                1.4986         estimate D2E/DX2                !
 ! R39   R(21,22)                1.3899         estimate D2E/DX2                !
 ! R40   R(21,37)                1.0815         estimate D2E/DX2                !
 ! R41   R(22,23)                1.4973         estimate D2E/DX2                !
 ! R42   R(23,38)                1.0862         estimate D2E/DX2                !
 ! R43   R(23,39)                1.0889         estimate D2E/DX2                !
 ! R44   R(23,40)                1.0893         estimate D2E/DX2                !
 ! R45   R(24,41)                1.0896         estimate D2E/DX2                !
 ! R46   R(24,42)                1.0887         estimate D2E/DX2                !
 ! R47   R(24,43)                1.0862         estimate D2E/DX2                !
 ! R48   R(25,44)                1.0872         estimate D2E/DX2                !
 ! R49   R(25,45)                1.0907         estimate D2E/DX2                !
 ! R50   R(25,46)                1.0877         estimate D2E/DX2                !
 ! A1    A(2,1,5)              105.8492         estimate D2E/DX2                !
 ! A2    A(1,2,3)              106.0617         estimate D2E/DX2                !
 ! A3    A(1,2,6)              136.5237         estimate D2E/DX2                !
 ! A4    A(3,2,6)              117.1927         estimate D2E/DX2                !
 ! A5    A(2,3,4)              113.2233         estimate D2E/DX2                !
 ! A6    A(2,3,9)              117.9584         estimate D2E/DX2                !
 ! A7    A(4,3,9)              128.6688         estimate D2E/DX2                !
 ! A8    A(3,4,5)              101.9094         estimate D2E/DX2                !
 ! A9    A(1,5,4)              112.9521         estimate D2E/DX2                !
 ! A10   A(1,5,17)             123.5576         estimate D2E/DX2                !
 ! A11   A(4,5,17)             123.4902         estimate D2E/DX2                !
 ! A12   A(2,6,7)              107.8186         estimate D2E/DX2                !
 ! A13   A(2,6,26)             111.6908         estimate D2E/DX2                !
 ! A14   A(2,6,27)             111.5564         estimate D2E/DX2                !
 ! A15   A(7,6,26)             110.1211         estimate D2E/DX2                !
 ! A16   A(7,6,27)             107.4731         estimate D2E/DX2                !
 ! A17   A(26,6,27)            108.1002         estimate D2E/DX2                !
 ! A18   A(6,7,8)              114.8652         estimate D2E/DX2                !
 ! A19   A(7,8,9)              115.371          estimate D2E/DX2                !
 ! A20   A(7,8,10)             110.3867         estimate D2E/DX2                !
 ! A21   A(7,8,28)             109.0618         estimate D2E/DX2                !
 ! A22   A(9,8,10)             105.6129         estimate D2E/DX2                !
 ! A23   A(9,8,28)             106.5695         estimate D2E/DX2                !
 ! A24   A(10,8,28)            109.661          estimate D2E/DX2                !
 ! A25   A(3,9,8)              110.1016         estimate D2E/DX2                !
 ! A26   A(3,9,12)             115.0313         estimate D2E/DX2                !
 ! A27   A(3,9,29)             107.3945         estimate D2E/DX2                !
 ! A28   A(8,9,12)             102.4327         estimate D2E/DX2                !
 ! A29   A(8,9,29)             110.2153         estimate D2E/DX2                !
 ! A30   A(12,9,29)            111.6059         estimate D2E/DX2                !
 ! A31   A(8,10,11)            103.1153         estimate D2E/DX2                !
 ! A32   A(8,10,30)            112.384          estimate D2E/DX2                !
 ! A33   A(8,10,31)            109.3292         estimate D2E/DX2                !
 ! A34   A(11,10,30)           113.4456         estimate D2E/DX2                !
 ! A35   A(11,10,31)           111.0045         estimate D2E/DX2                !
 ! A36   A(30,10,31)           107.5304         estimate D2E/DX2                !
 ! A37   A(10,11,12)           110.9601         estimate D2E/DX2                !
 ! A38   A(10,11,13)           128.84           estimate D2E/DX2                !
 ! A39   A(12,11,13)           120.1997         estimate D2E/DX2                !
 ! A40   A(9,12,11)            110.8358         estimate D2E/DX2                !
 ! A41   A(9,12,16)            128.2096         estimate D2E/DX2                !
 ! A42   A(11,12,16)           120.9214         estimate D2E/DX2                !
 ! A43   A(11,13,14)           119.0105         estimate D2E/DX2                !
 ! A44   A(11,13,32)           120.657          estimate D2E/DX2                !
 ! A45   A(14,13,32)           120.331          estimate D2E/DX2                !
 ! A46   A(13,14,15)           120.6524         estimate D2E/DX2                !
 ! A47   A(13,14,33)           119.7044         estimate D2E/DX2                !
 ! A48   A(15,14,33)           119.6404         estimate D2E/DX2                !
 ! A49   A(14,15,16)           120.3612         estimate D2E/DX2                !
 ! A50   A(14,15,34)           119.7786         estimate D2E/DX2                !
 ! A51   A(16,15,34)           119.8594         estimate D2E/DX2                !
 ! A52   A(12,16,15)           118.8482         estimate D2E/DX2                !
 ! A53   A(12,16,35)           120.6829         estimate D2E/DX2                !
 ! A54   A(15,16,35)           120.4689         estimate D2E/DX2                !
 ! A55   A(5,17,18)            119.1084         estimate D2E/DX2                !
 ! A56   A(5,17,22)            119.1326         estimate D2E/DX2                !
 ! A57   A(18,17,22)           121.7564         estimate D2E/DX2                !
 ! A58   A(17,18,19)           118.1125         estimate D2E/DX2                !
 ! A59   A(17,18,24)           121.0254         estimate D2E/DX2                !
 ! A60   A(19,18,24)           120.8621         estimate D2E/DX2                !
 ! A61   A(18,19,20)           121.8457         estimate D2E/DX2                !
 ! A62   A(18,19,36)           118.7834         estimate D2E/DX2                !
 ! A63   A(20,19,36)           119.3708         estimate D2E/DX2                !
 ! A64   A(19,20,21)           118.3212         estimate D2E/DX2                !
 ! A65   A(19,20,25)           120.9369         estimate D2E/DX2                !
 ! A66   A(21,20,25)           120.7321         estimate D2E/DX2                !
 ! A67   A(20,21,22)           121.8479         estimate D2E/DX2                !
 ! A68   A(20,21,37)           119.3697         estimate D2E/DX2                !
 ! A69   A(22,21,37)           118.7824         estimate D2E/DX2                !
 ! A70   A(17,22,21)           118.1153         estimate D2E/DX2                !
 ! A71   A(17,22,23)           120.9823         estimate D2E/DX2                !
 ! A72   A(21,22,23)           120.9023         estimate D2E/DX2                !
 ! A73   A(22,23,38)           110.7997         estimate D2E/DX2                !
 ! A74   A(22,23,39)           111.0084         estimate D2E/DX2                !
 ! A75   A(22,23,40)           111.3702         estimate D2E/DX2                !
 ! A76   A(38,23,39)           108.4889         estimate D2E/DX2                !
 ! A77   A(38,23,40)           108.2156         estimate D2E/DX2                !
 ! A78   A(39,23,40)           106.8074         estimate D2E/DX2                !
 ! A79   A(18,24,41)           111.3139         estimate D2E/DX2                !
 ! A80   A(18,24,42)           111.0441         estimate D2E/DX2                !
 ! A81   A(18,24,43)           110.7916         estimate D2E/DX2                !
 ! A82   A(41,24,42)           106.8463         estimate D2E/DX2                !
 ! A83   A(41,24,43)           108.1328         estimate D2E/DX2                !
 ! A84   A(42,24,43)           108.5631         estimate D2E/DX2                !
 ! A85   A(20,25,44)           111.4127         estimate D2E/DX2                !
 ! A86   A(20,25,45)           110.7326         estimate D2E/DX2                !
 ! A87   A(20,25,46)           111.352          estimate D2E/DX2                !
 ! A88   A(44,25,45)           107.461          estimate D2E/DX2                !
 ! A89   A(44,25,46)           108.4341         estimate D2E/DX2                !
 ! A90   A(45,25,46)           107.269          estimate D2E/DX2                !
 ! D1    D(5,1,2,3)             -0.6498         estimate D2E/DX2                !
 ! D2    D(5,1,2,6)           -174.8019         estimate D2E/DX2                !
 ! D3    D(2,1,5,4)              0.5536         estimate D2E/DX2                !
 ! D4    D(2,1,5,17)          -179.4426         estimate D2E/DX2                !
 ! D5    D(1,2,3,4)              0.5847         estimate D2E/DX2                !
 ! D6    D(1,2,3,9)            176.5255         estimate D2E/DX2                !
 ! D7    D(6,2,3,4)            176.0642         estimate D2E/DX2                !
 ! D8    D(6,2,3,9)             -7.995          estimate D2E/DX2                !
 ! D9    D(1,2,6,7)            129.8781         estimate D2E/DX2                !
 ! D10   D(1,2,6,26)          -109.0091         estimate D2E/DX2                !
 ! D11   D(1,2,6,27)            12.0978         estimate D2E/DX2                !
 ! D12   D(3,2,6,7)            -43.8022         estimate D2E/DX2                !
 ! D13   D(3,2,6,26)            77.3106         estimate D2E/DX2                !
 ! D14   D(3,2,6,27)          -161.5825         estimate D2E/DX2                !
 ! D15   D(2,3,4,5)             -0.239          estimate D2E/DX2                !
 ! D16   D(9,3,4,5)           -175.6458         estimate D2E/DX2                !
 ! D17   D(2,3,9,8)             41.6844         estimate D2E/DX2                !
 ! D18   D(2,3,9,12)           156.767          estimate D2E/DX2                !
 ! D19   D(2,3,9,29)           -78.3322         estimate D2E/DX2                !
 ! D20   D(4,3,9,8)           -143.0949         estimate D2E/DX2                !
 ! D21   D(4,3,9,12)           -28.0122         estimate D2E/DX2                !
 ! D22   D(4,3,9,29)            96.8885         estimate D2E/DX2                !
 ! D23   D(3,4,5,1)             -0.1947         estimate D2E/DX2                !
 ! D24   D(3,4,5,17)           179.8014         estimate D2E/DX2                !
 ! D25   D(1,5,17,18)           89.3141         estimate D2E/DX2                !
 ! D26   D(1,5,17,22)          -90.109          estimate D2E/DX2                !
 ! D27   D(4,5,17,18)          -90.6817         estimate D2E/DX2                !
 ! D28   D(4,5,17,22)           89.8952         estimate D2E/DX2                !
 ! D29   D(2,6,7,8)             61.0337         estimate D2E/DX2                !
 ! D30   D(26,6,7,8)           -61.0538         estimate D2E/DX2                !
 ! D31   D(27,6,7,8)          -178.5834         estimate D2E/DX2                !
 ! D32   D(6,7,8,9)            -26.8026         estimate D2E/DX2                !
 ! D33   D(6,7,8,10)          -146.4067         estimate D2E/DX2                !
 ! D34   D(6,7,8,28)            93.0512         estimate D2E/DX2                !
 ! D35   D(7,8,9,3)            -24.3786         estimate D2E/DX2                !
 ! D36   D(7,8,9,12)          -147.2028         estimate D2E/DX2                !
 ! D37   D(7,8,9,29)            93.916          estimate D2E/DX2                !
 ! D38   D(10,8,9,3)            97.8182         estimate D2E/DX2                !
 ! D39   D(10,8,9,12)          -25.006          estimate D2E/DX2                !
 ! D40   D(10,8,9,29)         -143.8873         estimate D2E/DX2                !
 ! D41   D(28,8,9,3)          -145.5904         estimate D2E/DX2                !
 ! D42   D(28,8,9,12)           91.5854         estimate D2E/DX2                !
 ! D43   D(28,8,9,29)          -27.2959         estimate D2E/DX2                !
 ! D44   D(7,8,10,11)          150.9742         estimate D2E/DX2                !
 ! D45   D(7,8,10,30)          -86.4932         estimate D2E/DX2                !
 ! D46   D(7,8,10,31)           32.8262         estimate D2E/DX2                !
 ! D47   D(9,8,10,11)           25.6308         estimate D2E/DX2                !
 ! D48   D(9,8,10,30)          148.1635         estimate D2E/DX2                !
 ! D49   D(9,8,10,31)          -92.5172         estimate D2E/DX2                !
 ! D50   D(28,8,10,11)         -88.843          estimate D2E/DX2                !
 ! D51   D(28,8,10,30)          33.6896         estimate D2E/DX2                !
 ! D52   D(28,8,10,31)         153.009          estimate D2E/DX2                !
 ! D53   D(3,9,12,11)         -104.3347         estimate D2E/DX2                !
 ! D54   D(3,9,12,16)           77.7749         estimate D2E/DX2                !
 ! D55   D(8,9,12,11)           15.0961         estimate D2E/DX2                !
 ! D56   D(8,9,12,16)         -162.7943         estimate D2E/DX2                !
 ! D57   D(29,9,12,11)         132.9942         estimate D2E/DX2                !
 ! D58   D(29,9,12,16)         -44.8962         estimate D2E/DX2                !
 ! D59   D(8,10,11,12)         -17.0383         estimate D2E/DX2                !
 ! D60   D(8,10,11,13)         162.7872         estimate D2E/DX2                !
 ! D61   D(30,10,11,12)       -138.8577         estimate D2E/DX2                !
 ! D62   D(30,10,11,13)         40.9678         estimate D2E/DX2                !
 ! D63   D(31,10,11,12)         99.9306         estimate D2E/DX2                !
 ! D64   D(31,10,11,13)        -80.2439         estimate D2E/DX2                !
 ! D65   D(10,11,12,9)           1.0142         estimate D2E/DX2                !
 ! D66   D(10,11,12,16)        179.082          estimate D2E/DX2                !
 ! D67   D(13,11,12,9)        -178.8285         estimate D2E/DX2                !
 ! D68   D(13,11,12,16)         -0.7607         estimate D2E/DX2                !
 ! D69   D(10,11,13,14)       -179.7417         estimate D2E/DX2                !
 ! D70   D(10,11,13,32)         -0.1805         estimate D2E/DX2                !
 ! D71   D(12,11,13,14)          0.0697         estimate D2E/DX2                !
 ! D72   D(12,11,13,32)        179.6309         estimate D2E/DX2                !
 ! D73   D(9,12,16,15)         178.581          estimate D2E/DX2                !
 ! D74   D(9,12,16,35)          -1.49           estimate D2E/DX2                !
 ! D75   D(11,12,16,15)          0.8794         estimate D2E/DX2                !
 ! D76   D(11,12,16,35)       -179.1916         estimate D2E/DX2                !
 ! D77   D(11,13,14,15)          0.4837         estimate D2E/DX2                !
 ! D78   D(11,13,14,33)        179.8666         estimate D2E/DX2                !
 ! D79   D(32,13,14,15)       -179.079          estimate D2E/DX2                !
 ! D80   D(32,13,14,33)          0.3039         estimate D2E/DX2                !
 ! D81   D(13,14,15,16)         -0.3594         estimate D2E/DX2                !
 ! D82   D(13,14,15,34)        179.3036         estimate D2E/DX2                !
 ! D83   D(33,14,15,16)       -179.7427         estimate D2E/DX2                !
 ! D84   D(33,14,15,34)         -0.0797         estimate D2E/DX2                !
 ! D85   D(14,15,16,12)         -0.3215         estimate D2E/DX2                !
 ! D86   D(14,15,16,35)        179.7494         estimate D2E/DX2                !
 ! D87   D(34,15,16,12)       -179.9843         estimate D2E/DX2                !
 ! D88   D(34,15,16,35)          0.0866         estimate D2E/DX2                !
 ! D89   D(5,17,18,19)        -179.6513         estimate D2E/DX2                !
 ! D90   D(5,17,18,24)           0.3322         estimate D2E/DX2                !
 ! D91   D(22,17,18,19)         -0.2439         estimate D2E/DX2                !
 ! D92   D(22,17,18,24)        179.7395         estimate D2E/DX2                !
 ! D93   D(5,17,22,21)         179.6157         estimate D2E/DX2                !
 ! D94   D(5,17,22,23)          -0.4637         estimate D2E/DX2                !
 ! D95   D(18,17,22,21)          0.2085         estimate D2E/DX2                !
 ! D96   D(18,17,22,23)       -179.8709         estimate D2E/DX2                !
 ! D97   D(17,18,19,20)          0.0073         estimate D2E/DX2                !
 ! D98   D(17,18,19,36)        179.979          estimate D2E/DX2                !
 ! D99   D(24,18,19,20)       -179.9762         estimate D2E/DX2                !
 ! D100  D(24,18,19,36)         -0.0045         estimate D2E/DX2                !
 ! D101  D(17,18,24,41)        -63.047          estimate D2E/DX2                !
 ! D102  D(17,18,24,42)         55.8625         estimate D2E/DX2                !
 ! D103  D(17,18,24,43)        176.5894         estimate D2E/DX2                !
 ! D104  D(19,18,24,41)        116.936          estimate D2E/DX2                !
 ! D105  D(19,18,24,42)       -124.1545         estimate D2E/DX2                !
 ! D106  D(19,18,24,43)         -3.4276         estimate D2E/DX2                !
 ! D107  D(18,19,20,21)          0.2528         estimate D2E/DX2                !
 ! D108  D(18,19,20,25)       -178.6176         estimate D2E/DX2                !
 ! D109  D(36,19,20,21)       -179.7187         estimate D2E/DX2                !
 ! D110  D(36,19,20,25)          1.4109         estimate D2E/DX2                !
 ! D111  D(19,20,21,22)         -0.2904         estimate D2E/DX2                !
 ! D112  D(19,20,21,37)        179.6579         estimate D2E/DX2                !
 ! D113  D(25,20,21,22)        178.5825         estimate D2E/DX2                !
 ! D114  D(25,20,21,37)         -1.4692         estimate D2E/DX2                !
 ! D115  D(19,20,25,44)        -24.849          estimate D2E/DX2                !
 ! D116  D(19,20,25,45)         94.6928         estimate D2E/DX2                !
 ! D117  D(19,20,25,46)       -146.0468         estimate D2E/DX2                !
 ! D118  D(21,20,25,44)        156.3078         estimate D2E/DX2                !
 ! D119  D(21,20,25,45)        -84.1504         estimate D2E/DX2                !
 ! D120  D(21,20,25,46)         35.11           estimate D2E/DX2                !
 ! D121  D(20,21,22,17)          0.0656         estimate D2E/DX2                !
 ! D122  D(20,21,22,23)       -179.8551         estimate D2E/DX2                !
 ! D123  D(37,21,22,17)       -179.883          estimate D2E/DX2                !
 ! D124  D(37,21,22,23)          0.1963         estimate D2E/DX2                !
 ! D125  D(17,22,23,38)       -179.6895         estimate D2E/DX2                !
 ! D126  D(17,22,23,39)        -59.0748         estimate D2E/DX2                !
 ! D127  D(17,22,23,40)         59.7991         estimate D2E/DX2                !
 ! D128  D(21,22,23,38)          0.2289         estimate D2E/DX2                !
 ! D129  D(21,22,23,39)        120.8436         estimate D2E/DX2                !
 ! D130  D(21,22,23,40)       -120.2825         estimate D2E/DX2                !
 --------------------------------------------------------------------------------
 Trust Radius=3.00D-01 FncErr=1.00D-07 GrdErr=1.00D-06
 Number of steps in this run=    276 maximum allowed number of steps=    276.
 GradGradGradGradGradGradGradGradGradGradGradGradGradGradGradGradGradGrad

 Leave Link  103 at Wed Feb 16 19:57:25 2022, MaxMem=  6710886400 cpu:         0.2
 (Enter /usr/local/gqt/g09/l202.exe)
                          Input orientation:                          
 ---------------------------------------------------------------------
 Center     Atomic      Atomic             Coordinates (Angstroms)
 Number     Number       Type             X           Y           Z
 ---------------------------------------------------------------------
      1          7           0        0.782879   -2.003468    0.073323
      2          6           0       -0.542509   -2.100738   -0.147245
      3          7           0       -0.974863   -0.821555   -0.452682
      4          6           0        0.023097    0.094531   -0.449826
      5          7           0        1.102733   -0.667232   -0.122880
      6          6           0       -1.575229   -3.155793   -0.037642
      7          8           0       -2.662591   -2.623624    0.700863
      8          6           0       -3.285653   -1.500958    0.114254
      9          6           0       -2.375561   -0.641948   -0.816604
     10          6           0       -3.787100   -0.544381    1.196100
     11          6           0       -3.722405    0.791966    0.524474
     12          6           0       -2.913368    0.742035   -0.606222
     13          6           0       -4.342054    1.978125    0.886816
     14          6           0       -4.143021    3.108012    0.104851
     15          6           0       -3.342682    3.052044   -1.031561
     16          6           0       -2.724235    1.864111   -1.396326
     17          6           0        2.425229   -0.145548    0.004563
     18          6           0        3.259589   -0.132496   -1.112079
     19          6           0        4.546382    0.373586   -0.962777
     20          6           0        5.007333    0.857276    0.255919
     21          6           0        4.146753    0.822173    1.347743
     22          6           0        2.852373    0.326319    1.245670
     23          6           0        1.942445    0.301490    2.434483
     24          6           0        2.785964   -0.648526   -2.435396
     25          6           0        6.387521    1.426414    0.386637
     26          1           0       -1.916818   -3.491254   -1.021793
     27          1           0       -1.206034   -4.020057    0.503487
     28          1           0       -4.126300   -1.838094   -0.496708
     29          1           0       -2.486727   -0.962357   -1.851526
     30          1           0       -4.782430   -0.803501    1.548978
     31          1           0       -3.113743   -0.584097    2.053595
     32          1           0       -4.976628    2.023803    1.760081
     33          1           0       -4.622107    4.037521    0.375598
     34          1           0       -3.206607    3.936627   -1.635792
     35          1           0       -2.106024    1.817705   -2.280110
     36          1           0        5.202964    0.388554   -1.821940
     37          1           0        4.489815    1.189080    2.305541
     38          1           0        2.439422    0.710898    3.309198
     39          1           0        1.039747    0.881008    2.247329
     40          1           0        1.622521   -0.713158    2.668342
     41          1           0        2.552034   -1.711518   -2.385249
     42          1           0        1.876465   -0.139836   -2.750571
     43          1           0        3.544812   -0.505055   -3.199185
     44          1           0        7.055007    1.027435   -0.373202
     45          1           0        6.370599    2.510783    0.270666
     46          1           0        6.812969    1.212873    1.364648
 ---------------------------------------------------------------------
                    Distance matrix (angstroms):
                    1          2          3          4          5
     1  N    0.000000
     2  C    1.347132   0.000000
     3  N    2.182489   1.384388   0.000000
     4  C    2.291845   2.287066   1.354676   0.000000
     5  N    1.387922   2.182282   2.109263   1.361172   0.000000
     6  C    2.626945   1.480427   2.445683   3.645428   3.656731
     7  O    3.556637   2.342530   2.725169   3.990661   4.322463
     8  C    4.099652   2.820099   2.474420   3.716396   4.473171
     9  C    3.552668   2.436430   1.458305   2.535841   3.546889
    10  C    4.926893   3.841119   3.271694   4.199391   5.066090
    11  C    5.321238   4.350940   3.332757   3.932488   5.082350
    12  C    4.654225   3.730012   2.495233   3.011071   4.283541
    13  C    6.540626   5.669475   4.579349   4.938530   6.137027
    14  C    7.098782   6.337059   5.078343   5.171583   6.467014
    15  C    6.618098   5.930780   4.576728   4.518160   5.866893
    16  C    5.423826   4.694695   3.341193   3.402221   4.761832
    17  C    2.480707   3.557145   3.496668   2.456490   1.427372
    18  C    3.322620   4.388716   4.340529   3.311344   2.432383
    19  C    4.570322   5.717008   5.672099   4.560822   3.694245
    20  C    5.105214   6.301836   6.253580   5.091411   4.208743
    21  C    4.574280   5.724297   5.672241   4.556891   3.694200
    22  C    3.329431   4.399550   4.341630   3.306544   2.433375
    23  C    3.497499   4.314049   4.255307   3.470730   2.860707
    24  C    3.484521   4.292236   4.254987   3.482536   2.860305
    25  C    6.578318   7.794302   7.743547   6.555873   5.707184
    26  H    3.271261   2.141750   2.887639   4.116828   4.230938
    27  H    2.864864   2.132488   3.346358   4.398796   4.118759
    28  H    4.944929   3.610355   3.311623   4.577634   5.371541
    29  H    3.934372   2.824972   2.064539   3.062840   3.994939
    30  H    5.881339   4.747307   4.301690   5.281550   6.119544
    31  H    4.595623   3.708792   3.303425   4.070309   4.745801
    32  H    7.227447   6.349106   5.385769   5.796812   6.909837
    33  H    8.111645   7.388823   6.131807   6.148692   7.426774
    34  H    7.356752   6.764833   5.387089   5.157442   6.484970
    35  H    5.337206   4.727355   3.403632   3.294302   4.596159
    36  H    5.371307   6.481639   6.442420   5.366579   4.562169
    37  H    5.377410   6.493331   6.443070   5.361124   4.562395
    38  H    4.536828   5.361362   5.306364   4.510964   3.932574
    39  H    3.621117   4.138638   3.774577   2.987770   2.831767
    40  H    3.017287   3.813170   4.061889   3.596316   2.839579
    41  H    3.042979   3.838795   4.118962   3.661038   2.882589
    42  H    3.555760   4.058803   3.724930   2.963668   2.789546
    43  H    4.536830   5.344786   5.298199   4.507877   3.931120
    44  H    6.980354   8.219414   8.240382   7.093937   6.193878
    45  H    7.186099   8.320567   8.098365   6.829946   6.164825
    46  H    6.955168   8.207856   8.251782   7.116556   6.193087
                    6          7          8          9         10
     6  C    0.000000
     7  O    1.418080   0.000000
     8  C    2.384764   1.411629   0.000000
     9  C    2.750769   2.512396   1.559699   0.000000
    10  C    3.637852   2.415167   1.528686   2.460272   0.000000
    11  C    4.528923   3.580583   2.369923   2.380880   1.497027
    12  C    4.160164   3.619257   2.385099   1.499635   2.380470
    13  C    5.904833   4.902170   3.717103   3.692359   2.601282
    14  C    6.771197   5.949668   4.688046   4.246786   3.828509
    15  C    6.530621   5.973025   4.695314   3.824540   4.253734
    16  C    5.325943   4.953965   3.731050   2.595762   3.694751
    17  C    5.006698   5.701895   5.870549   4.895744   6.338127
    18  C    5.802603   6.675679   6.798292   5.665842   7.426518
    19  C    7.126466   7.982497   8.124942   6.997569   8.657386
    20  C    7.714987   8.434594   8.622932   7.609540   8.954922
    21  C    7.105250   7.658925   7.884104   7.026281   8.052111
    22  C    5.777167   6.278042   6.503415   5.702790   6.696505
    23  C    5.517086   5.724342   5.997107   5.486786   5.922565
    24  C    5.572757   6.589680   6.640172   5.409424   7.510245
    25  C    9.196848   9.919984  10.110094   9.083915  10.395296
    26  H    1.094427   2.067971   2.669380   2.893284   4.135343
    27  H    1.084471   2.027447   3.289708   3.810781   4.384283
    28  H    2.907754   2.047847   1.092530   2.144338   2.157394
    29  H    2.988673   3.050480   2.189216   1.089075   3.339715
    30  H    4.282147   2.919908   2.187515   3.378623   1.087358
    31  H    3.654301   2.488592   2.152029   2.964170   1.091002
    32  H    6.452096   5.298612   4.241708   4.528916   2.885935
    33  H    7.822915   6.950997   5.703434   5.325950   4.729089
    34  H    7.451033   6.985185   5.712814   4.724940   5.332543
    35  H    5.481431   5.377859   4.258876   2.874786   4.526533
    36  H    7.854299   8.792310   8.909305   7.714057   9.528913
    37  H    7.820050   8.262482   8.514455   7.761046   8.528955
    38  H    6.501543   6.629705   6.919282   6.483556   6.694063
    39  H    5.324937   5.327411   5.378927   4.834399   5.141524
    40  H    4.849167   5.087538   5.588754   5.304204   5.608920
    41  H    4.963012   6.127670   6.353774   5.280703   7.373797
    42  H    5.326366   6.219697   6.058658   4.698092   6.914900
    43  H    6.575453   7.630895   7.656759   6.383279   8.548509
    44  H    9.596508  10.436262  10.656436   9.587443  11.067276
    45  H    9.764288  10.399314  10.457616   9.360405  10.647502
    46  H    9.561042  10.244294  10.531407   9.624308  10.746060
                   11         12         13         14         15
    11  C    0.000000
    12  C    1.391225   0.000000
    13  C    1.386445   2.407950   0.000000
    14  C    2.391040   2.759623   1.388426   0.000000
    15  C    2.770088   2.387753   2.414998   1.391081   0.000000
    16  C    2.415639   1.385312   2.800549   2.411177   1.388062
    17  C    6.240404   5.446235   7.147341   7.330595   6.675848
    18  C    7.230572   6.255085   8.138506   8.171930   7.330604
    19  C    8.411884   7.477350   9.219535   9.171839   8.331638
    20  C    8.734112   7.968317   9.437445   9.424310   8.729110
    21  C    7.912164   7.325961   8.579541   8.688509   8.168540
    22  C    6.630585   6.070098   7.390333   7.614120   7.141013
    23  C    5.998269   5.746206   6.685904   7.094832   6.892864
    24  C    7.293471   6.145073   8.291262   8.281018   7.295565
    25  C   10.130752   9.378736  10.755387  10.667684   9.966484
    26  H    4.898679   4.368815   6.280021   7.055184   6.696860
    27  H    5.430297   5.179186   6.779362   7.719726   7.545611
    28  H    2.850116   2.853115   4.064999   4.982581   4.981323
    29  H    3.201550   2.153545   4.425742   4.810262   4.185740
    30  H    2.172274   3.244528   2.893066   4.218327   4.857703
    31  H    2.145281   2.978826   3.071661   4.299847   4.774110
    32  H    2.148772   3.391071   1.080445   2.147137   3.394160
    33  H    3.371239   3.839790   2.140300   1.080192   2.142006
    34  H    3.849895   3.369187   3.389472   2.143201   1.079860
    35  H    3.395662   2.147271   3.880075   3.391502   2.147508
    36  H    9.237457   8.214485  10.048456   9.922470   8.985930
    37  H    8.412518   7.967768   8.979826   9.113243   8.715210
    38  H    6.762350   6.632032   7.311786   7.703412   7.599729
    39  H    5.065002   4.877416   5.658484   6.034140   5.888141
    40  H    5.952294   5.780540   6.781813   7.376605   7.247018
    41  H    7.355440   6.249438   8.476339   8.616973   7.698810
    42  H    6.552978   5.321506   7.509083   7.411893   6.354730
    43  H    8.268031   7.070133   9.223028   9.114477   8.049169
    44  H   10.817295   9.975182  11.505844  11.399700  10.613407
    45  H   10.241459   9.491546  10.743570  10.531875   9.815120
    46  H   10.577200   9.935172  11.191446  11.189833  10.595358
                   16         17         18         19         20
    16  C    0.000000
    17  C    5.702473   0.000000
    18  C    6.314538   1.393993   0.000000
    19  C    7.434481   2.388417   1.390772   0.000000
    20  C    7.969992   2.781384   2.430160   1.389839   0.000000
    21  C    7.471682   2.388360   2.783734   2.387349   1.390651
    22  C    6.359521   1.394796   2.436250   2.783728   2.430098
    23  C    6.236568   2.517426   3.808059   4.281012   3.801128
    24  C    6.144534   2.517244   1.497256   2.512447   3.800671
    25  C    9.294871   4.279813   3.802671   2.513793   1.498641
    26  H    5.428824   5.576785   6.171272   7.530832   8.275635
    27  H    6.366919   5.333556   6.137180   7.385413   7.902885
    28  H    4.059732   6.785169   7.605202   8.962375   9.552734
    29  H    2.872723   5.314090   5.852828   7.213823   7.994581
    30  H    4.475169   7.400572   8.497384   9.732481  10.013473
    31  H    4.248222   5.922083   7.130554   8.288134   8.441627
    32  H    3.880938   7.910462   8.985221  10.041160  10.163797
    33  H    3.386051   8.203699   9.040097   9.963777  10.141716
    34  H    2.141343   7.146502   7.657919   8.559033   8.973839
    35  H    1.079543   5.441171   5.827296   6.933639   7.612734
    36  H    8.074584   3.367074   2.133566   1.081427   2.139035
    37  H    8.136461   3.367231   3.865248   3.368996   2.139829
    38  H    7.080622   3.413841   4.575115   4.775231   3.992256
    39  H    5.330129   2.829024   4.152169   4.781082   4.439371
    40  H    6.485224   2.839408   4.160378   4.786962   4.443310
    41  H    6.449969   2.859990   2.148233   3.216910   4.427523
    42  H    5.197713   2.809259   2.144235   3.253962   4.453712
    43  H    6.940043   3.412728   2.139197   2.603204   3.991573
    44  H    9.868150   4.790975   4.036902   2.658631   2.148887
    45  H    9.268929   4.763701   4.310138   3.068674   2.143081
    46  H    9.950143   4.790345   4.535494   3.355403   2.148500
                   21         22         23         24         25
    21  C    0.000000
    22  C    1.389860   0.000000
    23  C    2.512188   1.497285   0.000000
    24  C    4.280986   3.808540   5.032870   0.000000
    25  C    2.511946   3.800713   5.021736   5.023988   0.000000
    26  H    7.809433   6.516167   6.420643   5.674111   9.753419
    27  H    7.267206   5.992703   5.684842   5.995023   9.345575
    28  H    8.883829   7.511487   7.071023   7.276880  11.044353
    29  H    7.577792   6.305497   6.291641   5.314195   9.458746
    30  H    9.078195   7.723905   6.872341   8.554522  11.449514
    31  H    7.429039   6.089018   5.147269   7.413618   9.853676
    32  H    9.211407   8.027411   7.162035   9.219610  11.462421
    33  H    9.390231   8.390345   7.828811   9.205446  11.315030
    34  H    8.524858   7.618949   7.502939   7.587747  10.121200
    35  H    7.297234   6.264268   6.396593   5.480689   8.910946
    36  H    3.369050   3.865150   5.362434   2.700695   2.712589
    37  H    1.081522   2.132815   2.700655   5.362498   2.709208
    38  H    2.602819   2.139294   1.086153   5.913416   4.963951
    39  H    3.235151   2.143971   1.088913   5.226534   5.688438
    40  H    3.236197   2.148731   1.089290   5.235066   5.699927
    41  H    4.785180   4.174513   5.258671   1.089582   5.678110
    42  H    4.782870   4.140005   5.204220   1.088710   5.713566
    43  H    4.774769   4.574646   5.912386   1.086190   4.966859
    44  H    3.385517   4.557899   5.877787   5.028540   1.087234
    45  H    2.992823   4.254460   5.401077   5.491231   1.090684
    46  H    2.694743   4.060352   5.069238   5.841396   1.087709
                   26         27         28         29         30
    26  H    0.000000
    27  H    1.763895   0.000000
    28  H    2.808997   3.780120   0.000000
    29  H    2.721869   4.066422   2.300141   0.000000
    30  H    4.695169   4.922387   2.384475   4.105961   0.000000
    31  H    4.397977   4.224690   3.016923   3.973185   1.757069
    32  H    6.893266   7.233578   4.553065   5.306643   2.841817
    33  H    8.121191   8.752741   5.960671   5.875262   4.983775
    34  H    7.563991   8.478657   5.957411   4.956290   5.924086
    35  H    5.459323   6.529767   4.541685   2.838550   5.356845
    36  H    8.147665   8.119034   9.682426   7.807508  10.606233
    37  H    8.603582   7.926235   9.552687   8.401311   9.514058
    38  H    7.442606   6.598735   8.005685   7.328015   7.585969
    39  H    6.208471   5.666123   6.450682   5.712672   6.101066
    40  H    5.819092   4.860340   6.658225   6.113692   6.502656
    41  H    4.999711   5.272307   6.941380   5.122032   8.372395
    42  H    5.348801   5.928474   6.633036   4.530151   7.954084
    43  H    6.594530   6.973920   8.241743   6.197158   9.590468
    44  H   10.066423   9.720625  11.543316   9.858469  12.131447
    45  H   10.313883  10.005571  11.387997   9.747750  11.705068
    46  H   10.199661   9.614030  11.508286  10.077686  11.770855
                   31         32         33         34         35
    31  H    0.000000
    32  H    3.218328   0.000000
    33  H    5.142975   2.469319   0.000000
    34  H    5.835850   4.280634   2.461607   0.000000
    35  H    5.056199   4.960442   4.279140   2.473107   0.000000
    36  H    9.226778  10.914624  10.708695   9.129313   7.461481
    37  H    7.811641   9.518815   9.739888   9.072929   8.057820
    38  H    5.838766   7.689036   8.338922   8.169204   7.288790
    39  H    4.408576   6.143302   6.747114   6.515133   5.592046
    40  H    4.777737   7.201712   8.174412   7.966589   6.692869
    41  H    7.285290   9.371080   9.599064   8.100937   5.844996
    42  H    6.941149   8.484822   8.333948   6.610439   4.462457
    43  H    8.481409  10.178624  10.005630   8.231306   6.178338
    44  H   10.577800  12.259849  12.082066  10.740496   9.390704
    45  H   10.134587  11.454915  11.098717   9.868662   8.879186
    46  H   10.111546  11.824067  11.820229  10.808024   9.653938
                   36         37         38         39         40
    36  H    0.000000
    37  H    4.264449   0.000000
    38  H    5.836921   2.332402   0.000000
    39  H    5.842417   3.464284   1.765104   0.000000
    40  H    5.847732   3.459987   1.762373   1.748783   0.000000
    41  H    3.428564   5.845680   6.189306   5.519872   5.234453
    42  H    3.493873   5.844646   6.145036   5.169258   5.455071
    43  H    2.333411   5.836534   6.712636   6.153132   6.177895
    44  H    2.436611   3.712412   5.913027   6.562924   6.464716
    45  H    3.200973   3.070010   5.284545   5.914503   6.219879
    46  H    3.664145   2.506569   4.812605   5.849731   5.687703
                   41         42         43         44         45
    41  H    0.000000
    42  H    1.749296   0.000000
    43  H    1.761719   1.765792   0.000000
    44  H    5.641539   5.816503   4.759850   0.000000
    45  H    6.281970   6.029170   5.396315   1.755933   0.000000
    46  H    6.385089   6.567642   5.870324   1.764396   1.754155
                   46
    46  H    0.000000
 Stoichiometry    C21H21N3O
 Framework group  C1[X(C21H21N3O)]
 Deg. of freedom   132
 Full point group                 C1      NOp   1
 Largest Abelian subgroup         C1      NOp   1
 Largest concise Abelian subgroup C1      NOp   1
                         Standard orientation:                         
 ---------------------------------------------------------------------
 Center     Atomic      Atomic             Coordinates (Angstroms)
 Number     Number       Type             X           Y           Z
 ---------------------------------------------------------------------
      1          7           0        0.783401   -2.008795    0.082043
      2          6           0       -0.542095   -2.104461   -0.138575
      3          7           0       -0.972083   -0.825566   -0.448524
      4          6           0        0.027506    0.088747   -0.448521
      5          7           0        1.105691   -0.673811   -0.118650
      6          6           0       -1.576724   -3.157293   -0.025653
      7          8           0       -2.663346   -2.620659    0.710706
      8          6           0       -3.284241   -1.498904    0.120069
      9          6           0       -2.372355   -0.644715   -0.813467
     10          6           0       -3.784290   -0.537730    1.198481
     11          6           0       -3.717024    0.796188    0.522294
     12          6           0       -2.907756    0.740937   -0.607989
     13          6           0       -4.334662    1.984684    0.880385
     14          6           0       -4.133394    3.111526    0.094606
     15          6           0       -3.332833    3.050234   -1.041375
     16          6           0       -2.716400    1.859958   -1.401883
     17          6           0        2.429078   -0.154048    0.007386
     18          6           0        3.263777   -0.146313   -1.109052
     19          6           0        4.551427    0.357986   -0.961113
     20          6           0        5.012893    0.845033    0.256050
     21          6           0        4.151941    0.815209    1.347738
     22          6           0        2.856709    0.321313    1.246991
     23          6           0        1.946400    0.302183    2.435618
     24          6           0        2.789609   -0.666036   -2.430728
     25          6           0        6.394055    1.412158    0.385216
     26          1           0       -1.918631   -3.495520   -1.008747
     27          1           0       -1.209223   -4.020352    0.518544
     28          1           0       -4.125313   -1.836637   -0.489977
     29          1           0       -2.483798   -0.968474   -1.847316
     30          1           0       -4.780180   -0.793865    1.551957
     31          1           0       -3.111249   -0.575702    2.056303
     32          1           0       -4.969402    2.034488    1.753304
     33          1           0       -4.610900    4.042810    0.362024
     34          1           0       -3.195011    3.932495   -1.648597
     35          1           0       -2.098021    1.809419   -2.285323
     36          1           0        5.208279    0.368838   -1.820132
     37          1           0        4.495384    1.184788    2.304372
     38          1           0        2.443857    0.713704    3.309068
     39          1           0        1.044789    0.882661    2.246215
     40          1           0        1.624603   -0.711086    2.672864
     41          1           0        2.553772   -1.728432   -2.377003
     42          1           0        1.881108   -0.156812   -2.747910
     43          1           0        3.548929   -0.526538   -3.194784
     44          1           0        7.061045    1.009387   -0.373056
     45          1           0        6.379098    2.496151    0.265521
     46          1           0        6.818844    1.201217    1.364077
 ---------------------------------------------------------------------
 Rotational constants (GHZ):      0.4060200      0.1301833      0.1159604
 Leave Link  202 at Wed Feb 16 19:57:25 2022, MaxMem=  6710886400 cpu:         0.0
 (Enter /usr/local/gqt/g09/l301.exe)
 Standard basis: 6-311+G(d,p) (5D, 7F)
 Ernie: Thresh=  0.10000D-02 Tol=  0.10000D-05 Strict=F.
 There are   701 symmetry adapted cartesian basis functions of A   symmetry.
 There are   676 symmetry adapted basis functions of A   symmetry.
   676 basis functions,  1068 primitive gaussians,   701 cartesian basis functions
    88 alpha electrons       88 beta electrons
       nuclear repulsion energy      2125.9617759220 Hartrees.
 IExCor= 5547 DFT=T Ex+Corr=N12SX ExCW=0 ScaHFX=  0.250000
 ScaDFX=  1.000000  1.000000  1.000000  1.000000 ScalE2=  1.000000  1.000000
 IRadAn=      0 IRanWt=     -1 IRanGd=            0 ICorTp=0 IEmpDi=  4
  HFx wShort=  0.110000 wLong=  0.000000 cFull=  0.000000 cShort=  1.000000 cLong=  0.000000
  DFx wShort=  0.110000 wLong=  0.000000 cFull=  0.000000 cShort=  1.000000 cLong=  0.000000
 NAtoms=   46 NActive=   46 NUniq=   46 SFac= 1.00D+00 NAtFMM=   60 NAOKFM=F Big=F
 Integral buffers will be    131072 words long.
 Raffenetti 2 integral format.
 Two-electron integral symmetry is turned on.
 ------------------------------------------------------------------------------
 Polarizable Continuum Model (PCM)
 =================================
 Model                : PCM (using non-symmetric T matrix).
 Atomic radii         : UFF (Universal Force Field).
 Polarization charges : Total charges.
 Charge compensation  : None.
 Solution method      : On-the-fly selection.
 Cavity type          : Scaled VdW (van der Waals Surface) (Alpha=1.100).
 Cavity algorithm     : GePol (No added spheres)
                        Default sphere list used, NSphG=   46.
                        Lebedev-Laikov grids with approx.  5.0 points / Ang**2.
                        Smoothing algorithm: Karplus/York (Gamma=1.0000).
                        Polarization charges: spherical gaussians, with
                                              point-specific exponents (IZeta= 3).
                        Self-potential: point-specific (ISelfS= 7).
                        Self-field    : sphere-specific E.n sum rule (ISelfD= 2).
 1st derivatives      : Analytical E(r).r(x)/FMM algorithm (CHGder, D1EAlg=3).
                        Cavity 1st derivative terms included.
 Solvent              : Ethanol, Eps=  24.852000 Eps(inf)=   1.852593
 ------------------------------------------------------------------------------
 GePol: Number of generator spheres                  =      46
 GePol: Total number of spheres                      =      46
 GePol: Number of exposed spheres                    =      46 (100.00%)
 GePol: Number of points                             =    3249
 GePol: Average weight of points                     =       0.13
 GePol: Minimum weight of points                     =   0.16D-10
 GePol: Maximum weight of points                     =    0.20577
 GePol: Number of points with low weight             =     225
 GePol: Fraction of low-weight points (<1% of avg)   =       6.93%
 GePol: Cavity surface area                          =    419.416 Ang**2
 GePol: Cavity volume                                =    465.542 Ang**3
 Leave Link  301 at Wed Feb 16 19:57:25 2022, MaxMem=  6710886400 cpu:         0.6
 (Enter /usr/local/gqt/g09/l302.exe)
 NPDir=0 NMtPBC=     1 NCelOv=     1 NCel=       1 NClECP=     1 NCelD=      1
         NCelK=      1 NCelE2=     1 NClLst=     1 CellRange=     0.0.
 One-electron integrals computed using PRISM.
 NBasis=   676 RedAO= T EigKep=  1.14D-06  NBF=   676
 NBsUse=   672 1.00D-06 EigRej=  9.26D-07 NBFU=   672
 Precomputing XC quadrature grid using
 IXCGrd= 4 IRadAn=           0 IRanWt=          -1 IRanGd=           0 AccXCQ= 0.00D+00.
 Generated NRdTot=       0 NPtTot=           0 NUsed=           0 NTot=          32
 NSgBfM=   690   691   695   695   695 MxSgAt=    46 MxSgA2=    46.
 Leave Link  302 at Wed Feb 16 19:57:26 2022, MaxMem=  6710886400 cpu:        18.4
 (Enter /usr/local/gqt/g09/l303.exe)
 DipDrv:  MaxL=1.
 Leave Link  303 at Wed Feb 16 19:57:26 2022, MaxMem=  6710886400 cpu:         1.4
 (Enter /usr/local/gqt/g09/l401.exe)
 ExpMin= 4.38D-02 ExpMax= 8.59D+03 ExpMxC= 1.30D+03 IAcc=2 IRadAn=         4 AccDes= 0.00D+00
 Harris functional with IExCor= 5547 and IRadAn=       4 diagonalized for initial guess.
 HarFok:  IExCor= 5547 AccDes= 0.00D+00 IRadAn=         4 IDoV= 1 UseB2=F ITyADJ=14
 ICtDFT=  3500011 ScaDFX=  1.000000  1.000000  1.000000  1.000000
 FoFCou: FMM=F IPFlag=           0 FMFlag=      100000 FMFlg1=           0
         NFxFlg=           0 DoJE=T BraDBF=F KetDBF=T FulRan=T
         wScrn=  0.000000 ICntrl=     500 IOpCl=  0 I1Cent=   200000004 NGrid=           0
         NMat0=    1 NMatS0=      1 NMatT0=    0 NMatD0=    1 NMtDS0=    0 NMtDT0=    0
 Petite list used in FoFCou.
 Harris En= -1019.21694245782    
 JPrj=0 DoOrth=F DoCkMO=F.
 Leave Link  401 at Wed Feb 16 19:57:28 2022, MaxMem=  6710886400 cpu:        43.2
 (Enter /usr/local/gqt/g09/l502.exe)
 Closed shell SCF:
 Using DIIS extrapolation, IDIIS=  1040.
 Integral symmetry usage will be decided dynamically.
 IVT=     1511981 IEndB=     1511981 NGot=  6710886400 MDV=  6709883162
 LenX=  6709883162 LenY=  6709391060
 Requested convergence on RMS density matrix=1.00D-08 within 128 cycles.
 Requested convergence on MAX density matrix=1.00D-06.
 Requested convergence on             energy=1.00D-06.
 No special actions if energy rises.
 Fock matrices will be formed incrementally for  20 cycles.

 Cycle   1  Pass 1  IDiag  1:
 FoFJK:  IHMeth= 1 ICntrl=       0 DoSepK=T KAlg= 0 I1Cent=   0 FoldK=F
 IRaf=         1 NMat=   1 IRICut=       1 DoRegI=T DoRafI=F ISym2E= 0.
 FoFCou: FMM=F IPFlag=           0 FMFlag=      100000 FMFlg1=           0
         NFxFlg=           0 DoJE=T BraDBF=F KetDBF=F FulRan=T
         wScrn=  0.000000 ICntrl=     500 IOpCl=  0 I1Cent=           0 NGrid=           0
         NMat0=    1 NMatS0=      1 NMatT0=    0 NMatD0=    1 NMtDS0=    0 NMtDT0=    0
 Symmetry not used in FoFCou.
 Inv3:  Mode=1 IEnd=    31668003.
 Iteration    1 A*A^-1 deviation from unit magnitude is 7.33D-15 for   1292.
 Iteration    1 A*A^-1 deviation from orthogonality  is 3.81D-15 for   3213   2338.
 Iteration    1 A^-1*A deviation from unit magnitude is 7.33D-15 for    458.
 Iteration    1 A^-1*A deviation from orthogonality  is 8.81D-12 for   3236   3199.
 E= -1051.70646492896    
 DIIS: error= 5.80D-02 at cycle   1 NSaved=   1.
 NSaved= 1 IEnMin= 1 EnMin= -1051.70646492896     IErMin= 1 ErrMin= 5.80D-02
 ErrMax= 5.80D-02  0.00D+00 EMaxC= 1.00D-01 BMatC= 2.63D+00 BMatP= 2.63D+00
 IDIUse=3 WtCom= 4.20D-01 WtEn= 5.80D-01
 Coeff-Com:  0.100D+01
 Coeff-En:   0.100D+01
 Coeff:      0.100D+01
 Gap=     0.264 Goal=   None    Shift=    0.000
 GapD=    0.264 DampG=1.000 DampE=0.500 DampFc=0.5000 IDamp=-1.
 Damping current iteration by 5.00D-01
 RMSDP=1.99D-02 MaxDP=4.38D+00              OVMax= 1.59D-01

 Cycle   2  Pass 1  IDiag  1:
 RMSU=  7.67D-03    CP:  9.17D-01
 E= -1051.85839722605     Delta-E=       -0.151932297088 Rises=F Damp=T
 DIIS: error= 2.49D-02 at cycle   2 NSaved=   2.
 NSaved= 2 IEnMin= 2 EnMin= -1051.85839722605     IErMin= 2 ErrMin= 2.49D-02
 ErrMax= 2.49D-02  0.00D+00 EMaxC= 1.00D-01 BMatC= 5.43D-01 BMatP= 2.63D+00
 IDIUse=3 WtCom= 7.51D-01 WtEn= 2.49D-01
 Coeff-Com: -0.488D+00 0.149D+01
 Coeff-En:   0.110D+00 0.890D+00
 Coeff:     -0.339D+00 0.134D+01
 Gap=     0.290 Goal=   None    Shift=    0.000
 RMSDP=1.62D-02 MaxDP=2.90D+00 DE=-1.52D-01 OVMax= 3.09D-01

 Cycle   3  Pass 1  IDiag  1:
 RMSU=  8.81D-03    CP:  7.78D-01 -1.11D-01
 E= -1051.72509297918     Delta-E=        0.133304246870 Rises=F Damp=F
 DIIS: error= 2.21D-02 at cycle   3 NSaved=   3.
 NSaved= 3 IEnMin= 2 EnMin= -1051.85839722605     IErMin= 3 ErrMin= 2.21D-02
 ErrMax= 2.21D-02  0.00D+00 EMaxC= 1.00D-01 BMatC= 4.14D-01 BMatP= 5.43D-01
 IDIUse=3 WtCom= 7.79D-01 WtEn= 2.21D-01
 Coeff-Com: -0.404D+00 0.911D+00 0.493D+00
 Coeff-En:   0.000D+00 0.678D+00 0.322D+00
 Coeff:     -0.315D+00 0.859D+00 0.455D+00
 Gap=     0.241 Goal=   None    Shift=    0.000
 RMSDP=1.20D-02 MaxDP=2.35D+00 DE= 1.33D-01 OVMax= 2.07D-01

 Cycle   4  Pass 1  IDiag  1:
 RMSU=  3.73D-03    CP:  7.39D-01  9.00D-01  1.17D-01
 E= -1052.06895477941     Delta-E=       -0.343861800235 Rises=F Damp=F
 DIIS: error= 8.14D-03 at cycle   4 NSaved=   4.
 NSaved= 4 IEnMin= 4 EnMin= -1052.06895477941     IErMin= 4 ErrMin= 8.14D-03
 ErrMax= 8.14D-03  0.00D+00 EMaxC= 1.00D-01 BMatC= 2.79D-02 BMatP= 4.14D-01
 IDIUse=3 WtCom= 9.19D-01 WtEn= 8.14D-02
 Coeff-Com: -0.215D+00 0.480D+00 0.316D+00 0.419D+00
 Coeff-En:   0.000D+00 0.000D+00 0.134D-01 0.987D+00
 Coeff:     -0.198D+00 0.441D+00 0.291D+00 0.466D+00
 Gap=     0.197 Goal=   None    Shift=    0.000
 RMSDP=4.72D-03 MaxDP=6.53D-01 DE=-3.44D-01 OVMax= 6.14D-02

 Cycle   5  Pass 1  IDiag  1:
 RMSU=  1.69D-03    CP:  7.69D-01  8.41D-01  4.64D-01  4.05D-01
 E= -1052.09273578074     Delta-E=       -0.023781001328 Rises=F Damp=F
 DIIS: error= 2.29D-03 at cycle   5 NSaved=   5.
 NSaved= 5 IEnMin= 5 EnMin= -1052.09273578074     IErMin= 5 ErrMin= 2.29D-03
 ErrMax= 2.29D-03  0.00D+00 EMaxC= 1.00D-01 BMatC= 3.65D-03 BMatP= 2.79D-02
 IDIUse=3 WtCom= 9.77D-01 WtEn= 2.29D-02
 Coeff-Com: -0.647D-01 0.144D+00 0.108D+00 0.299D+00 0.514D+00
 Coeff-En:   0.000D+00 0.000D+00 0.000D+00 0.132D+00 0.868D+00
 Coeff:     -0.632D-01 0.141D+00 0.105D+00 0.295D+00 0.522D+00
 Gap=     0.199 Goal=   None    Shift=    0.000
 RMSDP=1.39D-03 MaxDP=1.92D-01 DE=-2.38D-02 OVMax= 2.21D-02

 Cycle   6  Pass 1  IDiag  1:
 RMSU=  5.28D-04    CP:  7.62D-01  8.61D-01  3.68D-01  5.57D-01  6.43D-01
 E= -1052.09577070059     Delta-E=       -0.003034919848 Rises=F Damp=F
 DIIS: error= 6.79D-04 at cycle   6 NSaved=   6.
 NSaved= 6 IEnMin= 6 EnMin= -1052.09577070059     IErMin= 6 ErrMin= 6.79D-04
 ErrMax= 6.79D-04  0.00D+00 EMaxC= 1.00D-01 BMatC= 2.95D-04 BMatP= 3.65D-03
 IDIUse=3 WtCom= 9.93D-01 WtEn= 6.79D-03
 Coeff-Com:  0.162D-02-0.353D-02 0.520D-02 0.935D-01 0.309D+00 0.594D+00
 Coeff-En:   0.000D+00 0.000D+00 0.000D+00 0.000D+00 0.409D-01 0.959D+00
 Coeff:      0.161D-02-0.351D-02 0.516D-02 0.929D-01 0.307D+00 0.597D+00
 Gap=     0.197 Goal=   None    Shift=    0.000
 RMSDP=2.43D-04 MaxDP=2.78D-02 DE=-3.03D-03 OVMax= 4.89D-03

 Cycle   7  Pass 1  IDiag  1:
 RMSU=  1.27D-04    CP:  7.62D-01  8.59D-01  3.76D-01  5.56D-01  6.85D-01
                    CP:  6.64D-01
 E= -1052.09601764064     Delta-E=       -0.000246940051 Rises=F Damp=F
 DIIS: error= 2.48D-04 at cycle   7 NSaved=   7.
 NSaved= 7 IEnMin= 7 EnMin= -1052.09601764064     IErMin= 7 ErrMin= 2.48D-04
 ErrMax= 2.48D-04  0.00D+00 EMaxC= 1.00D-01 BMatC= 1.88D-05 BMatP= 2.95D-04
 IDIUse=3 WtCom= 9.98D-01 WtEn= 2.48D-03
 Coeff-Com:  0.314D-02-0.690D-02-0.971D-03 0.426D-01 0.156D+00 0.347D+00
 Coeff-Com:  0.460D+00
 Coeff-En:   0.000D+00 0.000D+00 0.000D+00 0.000D+00 0.000D+00 0.000D+00
 Coeff-En:   0.100D+01
 Coeff:      0.314D-02-0.688D-02-0.969D-03 0.425D-01 0.155D+00 0.346D+00
 Coeff:      0.461D+00
 Gap=     0.196 Goal=   None    Shift=    0.000
 RMSDP=7.64D-05 MaxDP=9.87D-03 DE=-2.47D-04 OVMax= 1.35D-03

 Cycle   8  Pass 1  IDiag  1:
 RMSU=  4.61D-05    CP:  7.62D-01  8.58D-01  3.75D-01  5.57D-01  6.73D-01
                    CP:  7.35D-01  7.60D-01
 E= -1052.09603397952     Delta-E=       -0.000016338878 Rises=F Damp=F
 DIIS: error= 9.61D-05 at cycle   8 NSaved=   8.
 NSaved= 8 IEnMin= 8 EnMin= -1052.09603397952     IErMin= 8 ErrMin= 9.61D-05
 ErrMax= 9.61D-05  0.00D+00 EMaxC= 1.00D-01 BMatC= 1.87D-06 BMatP= 1.88D-05
 IDIUse=1 WtCom= 1.00D+00 WtEn= 0.00D+00
 Coeff-Com:  0.104D-02-0.222D-02-0.115D-02 0.593D-02 0.239D-01 0.736D-01
 Coeff-Com:  0.256D+00 0.643D+00
 Coeff:      0.104D-02-0.222D-02-0.115D-02 0.593D-02 0.239D-01 0.736D-01
 Coeff:      0.256D+00 0.643D+00
 Gap=     0.196 Goal=   None    Shift=    0.000
 RMSDP=2.67D-05 MaxDP=4.09D-03 DE=-1.63D-05 OVMax= 4.26D-04

 Cycle   9  Pass 1  IDiag  1:
 RMSU=  1.46D-05    CP:  7.62D-01  8.60D-01  3.74D-01  5.58D-01  6.74D-01
                    CP:  7.37D-01  7.99D-01  7.23D-01
 E= -1052.09603581078     Delta-E=       -0.000001831259 Rises=F Damp=F
 DIIS: error= 1.05D-05 at cycle   9 NSaved=   9.
 NSaved= 9 IEnMin= 9 EnMin= -1052.09603581078     IErMin= 9 ErrMin= 1.05D-05
 ErrMax= 1.05D-05  0.00D+00 EMaxC= 1.00D-01 BMatC= 7.29D-08 BMatP= 1.87D-06
 IDIUse=1 WtCom= 1.00D+00 WtEn= 0.00D+00
 Coeff-Com:  0.210D-03-0.439D-03-0.349D-03-0.997D-04 0.284D-03 0.982D-02
 Coeff-Com:  0.727D-01 0.260D+00 0.658D+00
 Coeff:      0.210D-03-0.439D-03-0.349D-03-0.997D-04 0.284D-03 0.982D-02
 Coeff:      0.727D-01 0.260D+00 0.658D+00
 Gap=     0.196 Goal=   None    Shift=    0.000
 RMSDP=6.91D-06 MaxDP=7.99D-04 DE=-1.83D-06 OVMax= 5.77D-05

 Cycle  10  Pass 1  IDiag  1:
 RMSU=  3.83D-06    CP:  7.62D-01  8.60D-01  3.73D-01  5.59D-01  6.72D-01
                    CP:  7.37D-01  8.11D-01  7.69D-01  9.13D-01
 E= -1052.09603586030     Delta-E=       -0.000000049528 Rises=F Damp=F
 DIIS: error= 4.11D-06 at cycle  10 NSaved=  10.
 NSaved=10 IEnMin=10 EnMin= -1052.09603586030     IErMin=10 ErrMin= 4.11D-06
 ErrMax= 4.11D-06  0.00D+00 EMaxC= 1.00D-01 BMatC= 1.65D-08 BMatP= 7.29D-08
 IDIUse=1 WtCom= 1.00D+00 WtEn= 0.00D+00
 Coeff-Com:  0.296D-04-0.585D-04-0.664D-04-0.445D-03-0.152D-02-0.722D-04
 Coeff-Com:  0.162D-01 0.843D-01 0.361D+00 0.541D+00
 Coeff:      0.296D-04-0.585D-04-0.664D-04-0.445D-03-0.152D-02-0.722D-04
 Coeff:      0.162D-01 0.843D-01 0.361D+00 0.541D+00
 Gap=     0.196 Goal=   None    Shift=    0.000
 RMSDP=3.05D-06 MaxDP=3.64D-04 DE=-4.95D-08 OVMax= 4.03D-05

 Cycle  11  Pass 1  IDiag  1:
 RMSU=  1.21D-06    CP:  7.62D-01  8.60D-01  3.74D-01  5.58D-01  6.73D-01
                    CP:  7.39D-01  8.09D-01  7.71D-01  8.72D-01  6.91D-01
 E= -1052.09603587413     Delta-E=       -0.000000013828 Rises=F Damp=F
 DIIS: error= 1.10D-06 at cycle  11 NSaved=  11.
 NSaved=11 IEnMin=11 EnMin= -1052.09603587413     IErMin=11 ErrMin= 1.10D-06
 ErrMax= 1.10D-06  0.00D+00 EMaxC= 1.00D-01 BMatC= 1.15D-09 BMatP= 1.65D-08
 IDIUse=1 WtCom= 1.00D+00 WtEn= 0.00D+00
 Coeff-Com:  0.748D-05-0.156D-04-0.697D-05-0.226D-03-0.772D-03-0.903D-03
 Coeff-Com:  0.141D-03 0.149D-01 0.984D-01 0.257D+00 0.631D+00
 Coeff:      0.748D-05-0.156D-04-0.697D-05-0.226D-03-0.772D-03-0.903D-03
 Coeff:      0.141D-03 0.149D-01 0.984D-01 0.257D+00 0.631D+00
 Gap=     0.196 Goal=   None    Shift=    0.000
 RMSDP=1.18D-06 MaxDP=1.24D-04 DE=-1.38D-08 OVMax= 6.82D-06

 Cycle  12  Pass 1  IDiag  1:
 RMSU=  3.13D-07    CP:  7.62D-01  8.60D-01  3.73D-01  5.58D-01  6.72D-01
                    CP:  7.39D-01  8.10D-01  7.77D-01  8.88D-01  7.65D-01
                    CP:  8.59D-01
 E= -1052.09603587493     Delta-E=       -0.000000000801 Rises=F Damp=F
 DIIS: error= 3.36D-07 at cycle  12 NSaved=  12.
 NSaved=12 IEnMin=12 EnMin= -1052.09603587493     IErMin=12 ErrMin= 3.36D-07
 ErrMax= 3.36D-07  0.00D+00 EMaxC= 1.00D-01 BMatC= 1.45D-10 BMatP= 1.15D-09
 IDIUse=1 WtCom= 1.00D+00 WtEn= 0.00D+00
 Coeff-Com:  0.115D-05-0.327D-05 0.690D-05-0.477D-04-0.155D-03-0.378D-03
 Coeff-Com: -0.250D-02-0.471D-02-0.548D-02 0.598D-01 0.319D+00 0.634D+00
 Coeff:      0.115D-05-0.327D-05 0.690D-05-0.477D-04-0.155D-03-0.378D-03
 Coeff:     -0.250D-02-0.471D-02-0.548D-02 0.598D-01 0.319D+00 0.634D+00
 Gap=     0.196 Goal=   None    Shift=    0.000
 RMSDP=1.62D-07 MaxDP=1.63D-05 DE=-8.01D-10 OVMax= 3.69D-06

 Cycle  13  Pass 1  IDiag  1:
 RMSU=  9.31D-08    CP:  7.62D-01  8.60D-01  3.73D-01  5.58D-01  6.72D-01
                    CP:  7.39D-01  8.10D-01  7.78D-01  8.92D-01  7.68D-01
                    CP:  8.95D-01  8.69D-01
 E= -1052.09603587532     Delta-E=       -0.000000000389 Rises=F Damp=F
 DIIS: error= 1.14D-07 at cycle  13 NSaved=  13.
 NSaved=13 IEnMin=13 EnMin= -1052.09603587532     IErMin=13 ErrMin= 1.14D-07
 ErrMax= 1.14D-07  0.00D+00 EMaxC= 1.00D-01 BMatC= 1.13D-11 BMatP= 1.45D-10
 IDIUse=1 WtCom= 1.00D+00 WtEn= 0.00D+00
 Coeff-Com: -0.181D-06-0.364D-07 0.328D-05-0.794D-05-0.264D-04-0.114D-03
 Coeff-Com: -0.116D-02-0.304D-02-0.964D-02 0.100D-01 0.913D-01 0.293D+00
 Coeff-Com:  0.619D+00
 Coeff:     -0.181D-06-0.364D-07 0.328D-05-0.794D-05-0.264D-04-0.114D-03
 Coeff:     -0.116D-02-0.304D-02-0.964D-02 0.100D-01 0.913D-01 0.293D+00
 Coeff:      0.619D+00
 Gap=     0.196 Goal=   None    Shift=    0.000
 RMSDP=5.81D-08 MaxDP=1.10D-05 DE=-3.89D-10 OVMax= 1.45D-06

 Cycle  14  Pass 1  IDiag  1:
 RMSU=  3.93D-08    CP:  7.62D-01  8.60D-01  3.73D-01  5.58D-01  6.72D-01
                    CP:  7.39D-01  8.10D-01  7.78D-01  8.91D-01  7.74D-01
                    CP:  9.05D-01  8.54D-01  9.32D-01
 E= -1052.09603587526     Delta-E=        0.000000000060 Rises=F Damp=F
 DIIS: error= 6.45D-08 at cycle  14 NSaved=  14.
 NSaved=14 IEnMin=13 EnMin= -1052.09603587532     IErMin=14 ErrMin= 6.45D-08
 ErrMax= 6.45D-08  0.00D+00 EMaxC= 1.00D-01 BMatC= 2.42D-12 BMatP= 1.13D-11
 IDIUse=1 WtCom= 1.00D+00 WtEn= 0.00D+00
 Coeff-Com: -0.454D-06 0.864D-06 0.108D-05 0.102D-05 0.751D-06-0.196D-04
 Coeff-Com: -0.357D-03-0.109D-02-0.477D-02-0.102D-02 0.112D-01 0.913D-01
 Coeff-Com:  0.365D+00 0.540D+00
 Coeff:     -0.454D-06 0.864D-06 0.108D-05 0.102D-05 0.751D-06-0.196D-04
 Coeff:     -0.357D-03-0.109D-02-0.477D-02-0.102D-02 0.112D-01 0.913D-01
 Coeff:      0.365D+00 0.540D+00
 Gap=     0.196 Goal=   None    Shift=    0.000
 RMSDP=4.59D-08 MaxDP=6.12D-06 DE= 6.00D-11 OVMax= 6.00D-07

 Cycle  15  Pass 1  IDiag  1:
 RMSU=  1.25D-08    CP:  7.62D-01  8.60D-01  3.73D-01  5.58D-01  6.72D-01
                    CP:  7.39D-01  8.10D-01  7.78D-01  8.91D-01  7.75D-01
                    CP:  9.01D-01  8.78D-01  9.16D-01  6.78D-01
 E= -1052.09603587525     Delta-E=        0.000000000013 Rises=F Damp=F
 DIIS: error= 1.34D-08 at cycle  15 NSaved=  15.
 NSaved=15 IEnMin=13 EnMin= -1052.09603587532     IErMin=15 ErrMin= 1.34D-08
 ErrMax= 1.34D-08  0.00D+00 EMaxC= 1.00D-01 BMatC= 1.68D-13 BMatP= 2.42D-12
 IDIUse=1 WtCom= 1.00D+00 WtEn= 0.00D+00
 Coeff-Com: -0.253D-06 0.525D-06 0.327D-06 0.113D-05 0.198D-05-0.229D-05
 Coeff-Com: -0.112D-03-0.370D-03-0.196D-02-0.125D-02-0.100D-02 0.287D-01
 Coeff-Com:  0.155D+00 0.293D+00 0.527D+00
 Coeff:     -0.253D-06 0.525D-06 0.327D-06 0.113D-05 0.198D-05-0.229D-05
 Coeff:     -0.112D-03-0.370D-03-0.196D-02-0.125D-02-0.100D-02 0.287D-01
 Coeff:      0.155D+00 0.293D+00 0.527D+00
 Gap=     0.196 Goal=   None    Shift=    0.000
 RMSDP=5.62D-09 MaxDP=6.40D-07 DE= 1.32D-11 OVMax= 1.37D-07

 Error on total polarization charges =  0.01933
 SCF Done:  E(RN12SX) =  -1052.09603588     A.U. after   15 cycles
            NFock= 15  Conv=0.56D-08     -V/T= 2.0061
 KE= 1.045666974777D+03 PE=-6.698300927434D+03 EE= 2.474576140860D+03
 Leave Link  502 at Wed Feb 16 20:07:19 2022, MaxMem=  6710886400 cpu:     11766.8
 (Enter /usr/local/gqt/g09/l601.exe)
 Copying SCF densities to generalized density rwf, IOpCl= 0 IROHF=0.

 **********************************************************************

            Population analysis using the SCF density.

 **********************************************************************

 Orbital symmetries:
       Occupied  (A) (A) (A) (A) (A) (A) (A) (A) (A) (A) (A) (A)
                 (A) (A) (A) (A) (A) (A) (A) (A) (A) (A) (A) (A)
                 (A) (A) (A) (A) (A) (A) (A) (A) (A) (A) (A) (A)
                 (A) (A) (A) (A) (A) (A) (A) (A) (A) (A) (A) (A)
                 (A) (A) (A) (A) (A) (A) (A) (A) (A) (A) (A) (A)
                 (A) (A) (A) (A) (A) (A) (A) (A) (A) (A) (A) (A)
                 (A) (A) (A) (A) (A) (A) (A) (A) (A) (A) (A) (A)
                 (A) (A) (A) (A)
       Virtual   (A) (A) (A) (A) (A) (A) (A) (A) (A) (A) (A) (A)
                 (A) (A) (A) (A) (A) (A) (A) (A) (A) (A) (A) (A)
                 (A) (A) (A) (A) (A) (A) (A) (A) (A) (A) (A) (A)
                 (A) (A) (A) (A) (A) (A) (A) (A) (A) (A) (A) (A)
                 (A) (A) (A) (A) (A) (A) (A) (A) (A) (A) (A) (A)
                 (A) (A) (A) (A) (A) (A) (A) (A) (A) (A) (A) (A)
                 (A) (A) (A) (A) (A) (A) (A) (A) (A) (A) (A) (A)
                 (A) (A) (A) (A) (A) (A) (A) (A) (A) (A) (A) (A)
                 (A) (A) (A) (A) (A) (A) (A) (A) (A) (A) (A) (A)
                 (A) (A) (A) (A) (A) (A) (A) (A) (A) (A) (A) (A)
                 (A) (A) (A) (A) (A) (A) (A) (A) (A) (A) (A) (A)
                 (A) (A) (A) (A) (A) (A) (A) (A) (A) (A) (A) (A)
                 (A) (A) (A) (A) (A) (A) (A) (A) (A) (A) (A) (A)
                 (A) (A) (A) (A) (A) (A) (A) (A) (A) (A) (A) (A)
                 (A) (A) (A) (A) (A) (A) (A) (A) (A) (A) (A) (A)
                 (A) (A) (A) (A) (A) (A) (A) (A) (A) (A) (A) (A)
                 (A) (A) (A) (A) (A) (A) (A) (A) (A) (A) (A) (A)
                 (A) (A) (A) (A) (A) (A) (A) (A) (A) (A) (A) (A)
                 (A) (A) (A) (A) (A) (A) (A) (A) (A) (A) (A) (A)
                 (A) (A) (A) (A) (A) (A) (A) (A) (A) (A) (A) (A)
                 (A) (A) (A) (A) (A) (A) (A) (A) (A) (A) (A) (A)
                 (A) (A) (A) (A) (A) (A) (A) (A) (A) (A) (A) (A)
                 (A) (A) (A) (A) (A) (A) (A) (A) (A) (A) (A) (A)
                 (A) (A) (A) (A) (A) (A) (A) (A) (A) (A) (A) (A)
                 (A) (A) (A) (A) (A) (A) (A) (A) (A) (A) (A) (A)
                 (A) (A) (A) (A) (A) (A) (A) (A) (A) (A) (A) (A)
                 (A) (A) (A) (A) (A) (A) (A) (A) (A) (A) (A) (A)
                 (A) (A) (A) (A) (A) (A) (A) (A) (A) (A) (A) (A)
                 (A) (A) (A) (A) (A) (A) (A) (A) (A) (A) (A) (A)
                 (A) (A) (A) (A) (A) (A) (A) (A) (A) (A) (A) (A)
                 (A) (A) (A) (A) (A) (A) (A) (A) (A) (A) (A) (A)
                 (A) (A) (A) (A) (A) (A) (A) (A) (A) (A) (A) (A)
                 (A) (A) (A) (A) (A) (A) (A) (A) (A) (A) (A) (A)
                 (A) (A) (A) (A) (A) (A) (A) (A) (A) (A) (A) (A)
                 (A) (A) (A) (A) (A) (A) (A) (A) (A) (A) (A) (A)
[...]
 37754,-0.00006821,-0.00001516,-0.00011415,-0.19752911,-0.00217920,0.14
 164767,-0.00002242,0.00003086,0.00007310,-0.00002598,-0.00001059,0.000
 00045,-0.00000634,-0.00000881,0.00000529,-0.00001329,-0.00000782,0.000
 00128,-0.00002579,0.00000224,-0.00000762,-0.00000490,0.00000243,0.0000
 0444,0.00000037,0.00000019,-0.00000022,-0.00000138,0.00000136,0.000001
 46,-0.00000110,0.00000187,0.00000070,-0.00000059,0.00000324,0.00000006
 ,-0.00000003,-0.00000600,0.00000620,0.00016699,0.00005680,0.00017797,-
 0.00000483,0.00000157,0.00002515,0.00003831,0.00001101,-0.00002563,-0.
 00000917,-0.00000835,0.00001210,-0.00000476,0.00000794,-0.00000049,-0.
 00727421,0.00108376,0.00549111,-0.01592936,-0.00222858,0.01607812,0.21
 184064,-0.00003129,0.00025103,0.00017321,0.00016377,0.00006933,0.00005
 701,-0.00004006,0.00005566,-0.00009538,0.00011719,-0.00009457,-0.00011
 375,-0.00028271,-0.00037965,0.00018016,0.00000206,0.00001197,0.0000111
 9,-0.00001003,-0.00000115,0.00000236,0.00000568,-0.00000232,0.00000403
 ,0.00000545,0.00000187,-0.00002100,0.00000058,0.00000057,-0.00000071,-
 0.00000195,0.00000200,0.00000115,0.00000260,0.00000011,0.00000198,0.00
 000110,-0.00000029,-0.00000036,-0.00000019,0.00000065,-0.00000178,0.00
 000067,0.00000207,0.00000088,-0.00000151,-0.00000004,-0.00000076,-0.00
 145796,0.00028755,-0.00192327,0.00916995,-0.00173122,-0.00800137,0.000
 76059,0.00027378,-0.00009560,0.00011597,-0.00016707,0.00002095,-0.0000
 8136,0.00003997,0.00001700,0.00041699,0.00041777,-0.00029823,-0.000076
 22,-0.00014675,-0.00007934,-0.00357060,-0.04714870,0.00306932,0.000008
 98,-0.00004986,0.00005730,0.00000113,0.00000173,-0.00000108,0.00000083
 ,-0.00000119,0.00000114,-0.00000074,0.00000040,-0.00000135,-0.00000582
 ,0.00000049,-0.00000065,-0.00000083,0.00000021,0.00000042,0.00000071,-
 0.00000020,0.00000026,-0.00000048,0.,0.00000039,0.00000057,-0.00000061
 ,-0.00000024,0.00000007,-0.00000115,0.00000048,0.00000034,0.00000112,-
 0.00000113,-0.00033805,0.00013539,0.00008334,-0.00003494,0.00002399,0.
 00000091,0.00003877,-0.00002581,-0.00004289,0.00001872,-0.00000675,-0.
 00001035,-0.00001248,0.00000368,0.00002129,-0.02216191,0.00169781,0.02
 067185,0.01281700,0.00029287,-0.01366316,0.00446708,0.04617798,0.00005
 624,-0.00017821,0.00003537,0.00010596,-0.00001039,-0.00002033,0.000223
 62,0.00014279,0.00001078,-0.00024030,0.00015470,0.00004241,-0.00051408
 ,-0.00013557,0.00028600,-0.00003053,-0.00003032,0.00001326,0.00005045,
 0.00000876,-0.00000914,-0.00002451,-0.00000757,0.00000576,-0.00006285,
 0.00002145,-0.00002367,0.00000901,0.00000935,0.00000833,-0.00000475,-0
 .00000507,-0.00000697,0.00000258,0.00001229,0.00002556,0.00000097,-0.0
 0000499,-0.00000187,0.00000172,-0.00000377,-0.00000071,0.00000233,0.00
 000052,0.00000041,0.00000539,0.00000420,-0.00001088,-0.00346659,-0.002
 36480,-0.00349287,0.02191491,0.00073663,-0.02121064,0.00223765,0.00115
 912,0.00164039,-0.00009444,0.00006740,-0.00010733,-0.00026055,-0.00004
 454,0.00021130,0.00158135,0.00028772,-0.00041306,-0.00033257,-0.000138
 49,-0.00030196,0.13694279,0.00182593,-0.17546880,-0.00001401,-0.000022
 20,0.00002767,0.00001926,0.00001138,0.00000131,0.00000313,0.00000502,-
 0.00000317,0.00000945,0.00000553,-0.00000152,0.00002319,-0.00000003,0.
 00000906,0.00000294,-0.00000219,-0.00000276,0.00000003,-0.00000100,0.0
 0000074,-0.00000019,-0.00000068,-0.00000045,0.00000042,-0.00000101,-0.
 00000015,0.00000020,-0.00000141,-0.00000031,-0.00000022,0.00000135,-0.
 00000136,-0.00113961,-0.00031398,0.00045505,-0.00007434,-0.00002864,0.
 00001672,0.00007921,-0.00000980,-0.00015130,0.00001176,-0.00000152,0.0
 0001441,0.00001373,0.00001385,-0.00000328,0.00081183,0.00014006,-0.001
 95282,-0.00841803,-0.00127475,0.00812955,-0.14936490,-0.00001851,0.192
 24373,-0.00009049,0.00006646,-0.00003981,-0.00003391,-0.00003058,0.000
 00374,-0.00011257,-0.00004902,0.00000183,0.00002729,-0.00007682,0.0000
 0867,0.00008137,0.00008943,-0.00011386,0.00001564,0.00001675,-0.000009
 81,-0.00003431,-0.00000450,0.00000878,0.00002160,0.00001308,-0.0000075
 4,0.00003520,-0.00001050,0.00002712,-0.00001163,-0.00001163,-0.0000085
 0,0.00000593,0.00000229,0.00000789,-0.00000161,-0.00000992,-0.00002619
 ,-0.00000102,0.00000539,0.00000343,-0.00000188,0.00000209,0.00000021,-
 0.00000222,-0.00000177,0.00000063,-0.00000332,-0.00000732,0.00001184,0
 .00005649,0.00001767,-0.00032509,-0.00003067,-0.00032201,0.00023503,0.
 00191347,0.00025703,0.00180129,-0.01834161,0.01346739,0.02205651,-0.00
 492034,-0.00195293,-0.00223155,0.00018686,-0.00039067,0.00157904,-0.00
 028066,-0.00008750,-0.00017685,0.00001530,0.00003466,-0.00002019,-0.14
 224352,0.06982835,0.10814006,-0.00001174,-0.00000592,-0.00000115,-0.00
 000297,-0.00000263,0.00000176,-0.00000791,-0.00000524,0.00000168,-0.00
 001271,-0.00000217,-0.00000327,-0.00000190,0.00000216,0.00000206,-0.00
 000042,0.00000174,-0.00000136,0.00000111,0.00000044,-0.00000024,-0.000
 00069,0.00000131,0.00000025,0.00000022,0.00000140,-0.00000009,0.000000
 93,-0.00000126,0.00000072,0.00004196,0.00002634,-0.00117990,-0.0000223
 6,0.00025897,-0.00004632,0.00003894,0.00001897,0.00000068,-0.00008364,
 -0.00001462,0.00006455,-0.00007752,-0.00001797,0.00006465,0.00000333,-
 0.00000586,-0.00000627,-0.00000392,-0.00000852,-0.00002456,-0.00000825
 ,-0.00001157,-0.00004093,0.15610319,0.00002567,-0.00000038,0.00000859,
 -0.00000060,0.00000895,-0.00000203,0.00002133,0.00000225,0.00000542,0.
 00001196,0.00001331,-0.00000715,-0.00004121,-0.00003481,-0.00002132,-0
 .00000253,-0.00000218,0.00000153,0.00000675,-0.00000008,-0.00000145,-0
 .00000451,-0.00000199,0.00000124,-0.00000633,0.00000188,-0.00000417,0.
 00000238,0.00000212,0.00000174,-0.00000133,-0.00000041,-0.00000169,0.0
 0000044,0.00000183,0.00000510,0.00000046,-0.00000096,-0.00000053,0.000
 00043,-0.00000036,-0.00000004,0.00000053,0.00000048,0.00000010,0.00000
 093,0.00000165,-0.00000252,0.00004783,0.00016852,0.00044092,0.00031862
 ,0.00004664,0.00002536,-0.00022626,0.00048086,0.00050670,-0.00960491,0
 .00402365,0.00976723,-0.00170581,0.00001427,-0.00079070,-0.00084899,-0
 .00028565,0.00024545,-0.00006564,-0.00014218,-0.00001894,0.00003652,-0
 .00003903,-0.00000771,0.07266208,-0.09633537,-0.08301606,0.00000185,0.
 00000089,0.00000027,0.00000037,0.00000015,-0.00000008,0.00000149,0.000
 00100,-0.00000025,0.00000246,0.00000064,0.00000046,0.00000030,-0.00000
 042,-0.00000041,0.00000014,-0.00000035,0.00000036,-0.00000035,-0.00000
 008,0.00000003,0.00000008,-0.00000036,-0.00000014,-0.00000016,-0.00000
 046,-0.00000007,-0.00000024,0.00000022,-0.00000015,0.00022244,0.000031
 24,-0.00002644,-0.00004651,0.00000698,-0.00009211,0.00001061,0.0000063
 7,-0.00000234,-0.00000875,0.00000317,-0.00000095,-0.00003496,0.0000010
 0,0.00003897,-0.00000160,0.00000176,0.00000054,0.00000948,0.00000669,0
 .00001315,-0.00000974,0.00000290,-0.00000255,-0.07409895,0.10263815,-0
 .00004299,-0.00002097,0.00001653,0.00000611,-0.00002003,0.00000162,0.0
 0002068,0.00001474,0.00000960,-0.00001118,0.00001528,-0.00001700,0.000
 13214,-0.00011407,0.00005759,0.00000086,0.00000071,-0.00000563,0.00000
 393,0.00000146,-0.00000064,-0.00001001,-0.00001116,0.00000411,-0.00000
 400,-0.00000245,-0.00001101,0.00000879,0.00000883,0.00000530,-0.000005
 38,0.00000042,-0.00000722,0.00000070,0.00000290,0.00001729,0.00000097,
 -0.00000307,-0.00000227,0.00000063,0.00000006,0.00000056,0.00000138,0.
 00000165,-0.00000065,-0.00000038,0.00000706,-0.00000884,-0.00028847,0.
 00004613,0.00005742,0.00019332,0.00062140,0.00007106,-0.00176805,-0.00
 021546,0.00034058,-0.00228348,0.00294617,0.00147857,0.00003291,-0.0006
 6162,0.00064421,0.00009283,-0.00013503,0.00010708,0.00002438,0.0000623
 1,0.00001219,0.00007629,0.00001094,-0.00001619,0.11053255,-0.08212439,
 -0.17663591,0.00000065,-0.00000051,0.00000127,0.00000144,0.00000045,0.
 00000006,0.00000279,0.00000232,-0.00000115,0.00000314,0.00000255,-0.00
 000038,0.00000027,-0.00000112,-0.00000060,0.00000057,-0.00000164,0.000
 00105,-0.00000146,-0.00000002,0.00000065,0.00000024,-0.00000067,-0.000
 00010,-0.00000052,-0.00000025,0.,-0.00000125,-0.00000026,0.00000080,0.
 00017189,-0.00036611,0.00028988,-0.00020066,0.00004499,0.00029585,-0.0
 0001163,-0.00000217,0.00000005,0.00001018,-0.00000490,-0.00001145,0.00
 002518,-0.00000059,-0.00002904,0.00001442,0.00001478,0.00002361,0.0000
 1301,0.00000787,0.00002994,-0.00000801,-0.00000821,-0.00000416,-0.1203
 3490,0.09054925,0.18709678,-0.00020543,0.00010166,-0.00006365,-0.00006
 583,-0.00007734,0.00000404,-0.00019300,-0.00007183,-0.00000787,0.00004
 914,-0.00013976,0.00004184,0.00020466,0.00000511,0.00003473,0.00003359
 ,0.00003751,-0.00002448,-0.00005922,-0.00000714,0.00001686,0.00002206,
 0.00000491,-0.00000817,0.00006508,-0.00003074,0.00002700,-0.00000434,-
 0.00000628,-0.00000648,-0.00000065,0.00000581,0.00000230,0.00000065,-0
 .00001254,-0.00001626,-0.00000013,0.00000536,0.00000189,-0.00000208,0.
 00000481,0.00000115,-0.00000176,0.00000055,0.00000062,-0.00000819,0.00
 000028,0.00000457,-0.00020177,-0.00026458,-0.00023470,-0.00078061,0.00
 118643,-0.00012946,-0.00069612,0.00038752,0.00087714,-0.00360945,-0.03
 268778,0.00428310,-0.00061479,0.00009565,-0.00095240,-0.00022880,0.001
 31260,-0.00045025,0.00003742,-0.00011193,-0.00001752,-0.00000213,-0.00
 007644,0.00007827,-0.04333153,-0.00840222,0.00169221,-0.00002056,-0.00
 001205,-0.00000054,-0.00000309,-0.00000509,0.00000392,-0.00001006,-0.0
 0000578,0.00000126,-0.00002047,0.00000073,-0.00000803,-0.00000360,0.00
 000193,0.00000303,0.00000062,0.00000022,0.00000009,-0.00000091,0.00000
 081,0.00000096,-0.00000051,0.00000050,0.00000009,-0.00000096,0.0000012
 6,0.00000011,-0.00000097,-0.00000318,0.00000283,0.00024042,-0.00052252
 ,-0.00007873,0.00017891,-0.00043376,0.00042455,0.00001129,-0.00000031,
 0.00003334,-0.00002484,0.00000780,-0.00000128,-0.00004916,0.00000021,0
 .00003399,-0.00003830,-0.00001823,-0.00004391,-0.00002652,0.00000452,-
 0.00002360,0.00002349,-0.00001318,-0.00002587,0.00013974,0.01865127,-0
 .00393519,0.04962834,-0.00008141,0.00005512,-0.00003915,-0.00001567,-0
 .00002112,0.00000242,-0.00006828,-0.00002924,-0.00000219,0.00005217,-0
 .00004556,0.00001410,0.00001424,-0.00012090,0.00004323,0.00000314,0.00
 000422,-0.00000499,-0.00002759,0.00000210,0.00000661,0.00003177,0.0000
 2393,-0.00000967,0.00002281,0.00000304,0.00003355,-0.00002277,-0.00002
 309,-0.00001576,0.00001361,-0.00000008,0.00001987,-0.00000162,-0.00001
 087,-0.00004796,-0.00000284,0.00001006,0.00000603,-0.00000148,0.000001
 63,-0.00000023,-0.00000324,-0.00000353,0.00000166,-0.00000155,-0.00001
 603,0.00002343,0.00026760,0.00009846,0.00031941,-0.00048731,0.00039661
 ,-0.00022144,-0.00054892,0.00052358,0.00077079,-0.00328685,-0.00838584
 ,0.00057957,0.00067892,0.00055971,-0.00109165,-0.00095698,0.00007380,-
 0.00043160,-0.00002783,-0.00000385,-0.00004331,-0.00005513,-0.00000024
 ,0.00003566,-0.00497292,-0.30786126,0.03893143,-0.00000794,-0.00000376
 ,-0.00000244,-0.00000312,-0.00000098,0.00000028,-0.00000907,-0.0000062
 8,0.00000264,-0.00001086,-0.00000607,-0.00000070,-0.00000117,0.0000034
 9,0.00000219,-0.00000154,0.00000378,-0.00000218,0.00000314,0.00000013,
 -0.00000170,-0.00000107,0.00000140,-0.00000007,0.00000013,0.00000103,-
 0.00000041,0.00000212,-0.00000072,-0.00000234,0.00009141,-0.00039749,0
 .00007963,0.00007449,-0.00037429,0.00016608,0.00001000,0.00000348,0.00
 002045,-0.00003354,0.00000604,0.00002569,-0.00002037,-0.00000141,0.000
 02634,-0.00001714,-0.00001574,-0.00002569,-0.00002207,-0.00000574,-0.0
 0003196,0.00001596,-0.00000542,-0.00000865,-0.00032146,-0.01304295,0.0
 0254081,0.00955655,0.33408129,-0.00000937,0.00000484,0.00000296,-0.000
 00574,-0.00000722,-0.00000207,-0.00000760,-0.00000022,0.00000682,0.000
 00714,-0.00001082,-0.00001173,0.00000868,-0.00000972,0.00001437,0.0000
 0170,0.00000373,-0.00000292,-0.00000139,-0.00000046,-0.00000050,-0.000
 00300,-0.00000282,0.00000094,0.00000299,-0.00000468,0.00000183,0.00000
 475,0.00000173,0.00000101,-0.00000294,0.00000138,-0.00000010,0.0000002
 6,0.00000117,0.00000352,0.00000018,0.00000087,-0.00000212,0.00000052,0
 .00000065,-0.00000068,-0.00000041,0.00000054,-0.00000071,-0.00000111,0
 .00000380,-0.00000323,-0.00022968,0.00025834,0.00119116,0.00107555,0.0
 0080558,-0.00064481,-0.00195338,-0.00035119,-0.00069884,-0.00016743,-0
 .00355403,0.00009410,0.00195695,0.00009206,-0.00010575,-0.00094183,-0.
 00073564,-0.00064791,0.00001234,0.00003899,-0.00000671,-0.00000294,-0.
 00008013,0.00002035,0.00115276,0.03841769,-0.04922580,-0.00000164,-0.0
 0000181,-0.00000066,0.00000052,-0.00000091,0.00000094,-0.00000010,-0.0
 0000007,-0.00000070,-0.00000021,0.00000062,-0.00000218,-0.00000081,-0.
 00000050,0.00000014,0.00000045,-0.00000034,0.00000079,-0.00000045,0.00
 000006,0.00000071,0.00000104,-0.00000137,-0.00000006,-0.00000039,-0.00
 000145,0.00000122,-0.00000096,-0.00000037,0.00000127,0.00004122,-0.000
 27321,0.00002452,0.00004951,0.00014134,-0.00008952,-0.00000508,0.00000
 279,0.00000248,-0.00000258,0.00000152,0.00001370,0.00000513,0.00000056
 ,-0.00000277,-0.00001165,-0.00000428,-0.00001419,-0.00000196,0.0000063
 9,0.00001833,0.00000541,-0.00000248,0.00000633,-0.00121351,-0.02271083
 ,0.00368449,-0.00062580,-0.04214880,0.04997168,-0.00011460,0.00006489,
 -0.00004588,-0.00003593,-0.00004231,0.00000004,-0.00011590,-0.00005366
 ,-0.00001041,0.00002150,-0.00007258,0.00003407,0.00009645,0.00010911,0
 .00008847,0.00001707,0.00001838,-0.00001220,-0.00003626,-0.00000415,0.
 00001117,0.00002197,0.00001311,-0.00000850,0.00003736,-0.00001349,0.00
 002358,-0.00001125,-0.00001194,-0.00000908,0.00000567,0.00000309,0.000
 00838,-0.00000056,-0.00000980,-0.00002566,-0.00000141,0.00000564,0.000
 00321,-0.00000141,0.00000284,0.00000054,-0.00000269,-0.00000161,0.0000
 0046,-0.00000301,-0.00000669,0.00001107,-0.00014060,0.00013043,0.00011
 195,0.00051571,-0.00112072,-0.00090639,-0.00483680,-0.00111730,0.00114
 738,-0.01163812,0.00581941,-0.02916644,0.00172523,-0.00059108,-0.00111
 415,0.00020359,-0.00029484,-0.00014952,0.00003378,0.00004633,0.0000124
 5,-0.00027509,-0.00002115,0.00009245,-0.08353032,0.01997621,-0.0885912
 7,-0.00001209,-0.00000667,-0.00000105,-0.00000296,-0.00000326,0.000001
 86,-0.00000816,-0.00000514,0.00000178,-0.00001376,-0.00000198,-0.00000
 378,-0.00000210,0.00000218,0.00000230,-0.00000033,0.00000148,-0.000000
 74,0.00000068,0.00000043,-0.00000016,-0.00000071,0.00000104,0.00000009
 ,0.00000006,0.00000095,-0.00000005,0.00000073,-0.00000150,0.00000100,-
 0.00006031,0.00024659,-0.00019164,-0.00025359,0.00040590,0.00087975,-0
 .00001973,0.00000781,0.00003754,-0.00000989,-0.00000149,0.00001581,0.0
 0000393,-0.00000142,0.00000373,-0.00005038,-0.00004455,-0.00006163,-0.
 00005307,-0.00003956,-0.00006016,0.00003178,0.00001705,-0.00000084,0.0
 0765524,-0.00532701,0.01753533,-0.00042966,0.00017368,0.00086485,0.091
 28992,0.00003753,0.00001425,0.00000266,-0.00000455,0.00001447,-0.00000
 494,0.00000568,-0.00000793,0.00000079,0.00001464,0.00000360,0.00000644
 ,-0.00009955,0.00003790,0.00000363,-0.00000006,-0.00000137,0.00000090,
 0.00000458,-0.00000148,-0.00000087,-0.00000216,-0.00000034,0.00000023,
 -0.00000203,0.00000179,-0.00000360,0.00000038,0.00000171,0.00000138,0.
 00000012,-0.00000035,-0.00000226,0.00000004,0.00000024,0.00000367,0.00
 000013,-0.00000170,0.00000002,-0.00000035,-0.00000065,0.00000033,0.000
 00052,-0.00000021,-0.00000003,0.00000050,-0.00000029,-0.00000034,0.000
 27068,-0.00001752,-0.00033843,-0.00068494,-0.00060251,-0.00029720,-0.0
 0194710,0.00020945,0.00035009,-0.00640252,0.00009712,-0.01266048,0.000
 68266,0.00049826,-0.00040966,0.00019117,-0.00019989,0.00011658,-0.0000
 0025,-0.00002094,0.00001681,-0.00010963,-0.00009854,0.00005216,0.02138
 907,-0.05365708,0.04892148,0.00000104,0.00000078,0.00000067,-0.0000003
 4,0.00000011,-0.00000029,0.00000097,0.00000051,0.00000012,0.00000059,0
 .00000036,0.00000077,0.00000050,-0.00000011,-0.00000026,-0.00000017,-0
 .00000005,-0.00000029,0.00000012,0.00000008,-0.00000013,-0.00000022,0.
 00000054,0.00000017,0.00000018,0.00000090,-0.00000038,0.00000022,0.000
 00018,-0.00000042,-0.00007015,0.00019377,0.00015591,0.00014336,0.00019
 089,0.00004877,-0.00000444,0.00000465,-0.00000251,0.00000010,0.0000029
 6,0.00000218,-0.00000788,-0.00000142,0.00000504,-0.00002394,-0.0000224
 0,-0.00004867,-0.00001464,-0.00000412,-0.00001900,0.00001466,0.0000098
 8,0.00000258,-0.00666056,0.00242043,-0.01320840,0.01152867,-0.00547043
 ,0.03011871,-0.01825263,0.05640452,0.00001586,0.00004172,0.00000382,-0
 .00000744,0.00001232,-0.00001007,-0.00005062,-0.00001965,0.00000497,0.
 00001261,-0.00003950,-0.00000272,-0.00011898,0.00017094,-0.00001778,0.
 00000109,-0.00000239,-0.00000328,-0.00000954,-0.00000039,0.00000331,0.
 00001679,0.00001758,-0.00000807,0.00001143,0.00000102,0.00002102,-0.00
 001463,-0.00001423,-0.00000923,0.00000885,0.00000019,0.00001190,-0.000
 00180,-0.00000627,-0.00002934,-0.00000177,0.00000510,0.00000392,-0.000
 00077,0.00000064,-0.00000030,-0.00000235,-0.00000226,0.00000109,0.0000
 0045,-0.00001054,0.00001389,0.00019958,0.00008183,0.00048458,0.0003490
 9,-0.00005408,-0.00022467,-0.00117387,0.00032186,0.00047154,0.00012913
 ,-0.00098683,-0.00130832,0.00218985,0.00009072,0.00046500,-0.00049855,
 -0.00076458,0.00009902,-0.00006305,0.00000168,-0.00003518,-0.00009681,
 -0.00000300,0.00003133,-0.09089712,0.04768578,-0.27632000,-0.00000388,
 -0.00000138,-0.00000136,-0.00000234,-0.00000086,0.00000003,-0.00000511
 ,-0.00000413,0.00000210,-0.00000577,-0.00000349,0.00000028,-0.00000068
 ,0.00000199,0.00000125,-0.00000087,0.00000224,-0.00000132,0.00000186,0
 .00000007,-0.00000102,-0.00000069,0.00000115,0.00000002,0.00000060,0.0
 0000049,-0.00000025,0.00000171,-0.00000012,-0.00000107,0.00007534,0.00
 018157,0.00026809,-0.00034033,0.00054839,0.00015083,0.00000598,0.00000
 884,0.00000905,-0.00002838,0.00000381,0.00003202,-0.00001624,-0.000003
 03,0.00002412,-0.00002193,-0.00002004,-0.00002941,-0.00001672,-0.00001
 349,-0.00003290,0.00001599,0.00000498,0.00000534,-0.00821055,0.0050982
 4,-0.01749590,-0.00091569,0.00048103,-0.00359972,0.09947029,-0.0528139
 4,0.29702341\\0.00000323,0.00000306,-0.00000536,-0.00000582,0.00000365
 ,-0.00000646,0.00000097,-0.00000066,0.00000080,0.00000304,0.00000548,0
 .00000127,-0.00000278,-0.00000697,-0.00000027,-0.00000163,-0.00000124,
 -0.00000761,-0.00000036,0.00000008,-0.00000204,-0.00000163,0.00000313,
 -0.00000620,-0.00000065,0.00000053,0.00000075,0.00000182,-0.00000269,0
 .00000046,0.00000002,-0.00000043,0.00000158,-0.00000112,0.00000218,0.0
 0000068,0.00000084,-0.00000063,0.00000450,0.00000132,0.00000115,0.0000
 0608,0.00000053,0.00000292,0.00000627,0.00000068,0.00000280,0.00000336
 ,0.00000163,0.00000531,-0.00000110,-0.00000086,-0.00000014,-0.00000166
 ,0.00000116,-0.00000110,0.00000087,0.00000005,-0.00000248,-0.00000013,
 0.00000083,-0.00000549,0.00000103,-0.00000111,-0.00000208,0.00000006,-
 0.00000030,-0.00000223,-0.00000054,-0.00000093,0.00000551,-0.00000263,
 0.00000045,-0.00000217,0.00000095,-0.00000146,0.00000094,-0.00000559,-
 0.00000031,-0.00000067,-0.00000673,-0.00000103,0.00000193,-0.00000310,
 -0.00000047,0.00000416,-0.00000132,-0.00000015,-0.00000114,-0.00000161
 ,-0.00000074,-0.00000269,-0.00000083,0.00000072,-0.00000138,0.00000427
 ,0.00000099,0.00000054,0.00000813,0.00000066,0.00000367,0.00000790,0.0
 0000044,0.00000409,0.00000413,-0.00000034,0.00000232,-0.00000076,0.000
 00065,-0.00000503,0.00000096,0.00000058,-0.00000609,0.00000064,0.00000
 023,-0.00000648,0.00000147,0.00000156,-0.00000677,-0.00000087,0.000000
 44,0.00000289,-0.00000365,-0.00000126,0.00000359,0.00000043,-0.0000010
 2,0.00000603,-0.00000213,0.00000006,-0.00000093,0.,0.00000050,-0.00000
 198,0.00000340,0.00000058,-0.00000446,0.00000059\\\@


 MEMORIES ARE LIKE AN ENGLISH GRAMMER LESSON -
 PRESENT TENSE, AND PAST PERFECT.
 Job cpu time:       6 days 12 hours 37 minutes 44.4 seconds.
 File lengths (MBytes):  RWF=   4628 Int=      0 D2E=      0 Chk=     46 Scr=      1
 Normal termination of Gaussian 09 at Thu Feb 17 07:38:18 2022.
