 Entering Gaussian System, Link 0=g09
 Input=NHC22.gjf
 Output=NHC22.log
 Initial command:
 /usr/local/gqt/g09/l1.exe "/usr/local/gqt/lixogaussian/Gau-2269.inp" -scrdir="/usr/local/gqt/lixogaussian/"
 Entering Link 1 = /usr/local/gqt/g09/l1.exe PID=      2271.
  
 Copyright (c) 1988,1990,1992,1993,1995,1998,2003,2009,2013,
            Gaussian, Inc.  All Rights Reserved.
  
 This is part of the Gaussian(R) 09 program.  It is based on
 the Gaussian(R) 03 system (copyright 2003, Gaussian, Inc.),
 the Gaussian(R) 98 system (copyright 1998, Gaussian, Inc.),
 the Gaussian(R) 94 system (copyright 1995, Gaussian, Inc.),
 the Gaussian 92(TM) system (copyright 1992, Gaussian, Inc.),
 the Gaussian 90(TM) system (copyright 1990, Gaussian, Inc.),
 the Gaussian 88(TM) system (copyright 1988, Gaussian, Inc.),
 the Gaussian 86(TM) system (copyright 1986, Carnegie Mellon
 University), and the Gaussian 82(TM) system (copyright 1983,
 Carnegie Mellon University). Gaussian is a federally registered
 trademark of Gaussian, Inc.
  
 This software contains proprietary and confidential information,
 including trade secrets, belonging to Gaussian, Inc.
  
 This software is provided under written license and may be
 used, copied, transmitted, or stored only in accord with that
 written license.
  
 The following legend is applicable only to US Government
 contracts under FAR:
  
                    RESTRICTED RIGHTS LEGEND
  
 Use, reproduction and disclosure by the US Government is
 subject to restrictions as set forth in subparagraphs (a)
 and (c) of the Commercial Computer Software - Restricted
 Rights clause in FAR 52.227-19.
  
 Gaussian, Inc.
 340 Quinnipiac St., Bldg. 40, Wallingford CT 06492
  
  
 ---------------------------------------------------------------
 Warning -- This program may not be used in any manner that
 competes with the business of Gaussian, Inc. or will provide
 assistance to any competitor of Gaussian, Inc.  The licensee
 of this program is prohibited from giving any competitor of
 Gaussian, Inc. access to this program.  By using this program,
 the user acknowledges that Gaussian, Inc. is engaged in the
 business of creating and licensing software in the field of
 computational chemistry and represents and warrants to the
 licensee that it is not a competitor of Gaussian, Inc. and that
 it will not use this program in any manner prohibited above.
 ---------------------------------------------------------------
  

 Cite this work as:
 Gaussian 09, Revision D.01,
 M. J. Frisch, G. W. Trucks, H. B. Schlegel, G. E. Scuseria, 
 M. A. Robb, J. R. Cheeseman, G. Scalmani, V. Barone, B. Mennucci, 
 G. A. Petersson, H. Nakatsuji, M. Caricato, X. Li, H. P. Hratchian, 
 A. F. Izmaylov, J. Bloino, G. Zheng, J. L. Sonnenberg, M. Hada, 
 M. Ehara, K. Toyota, R. Fukuda, J. Hasegawa, M. Ishida, T. Nakajima, 
 Y. Honda, O. Kitao, H. Nakai, T. Vreven, J. A. Montgomery, Jr., 
 J. E. Peralta, F. Ogliaro, M. Bearpark, J. J. Heyd, E. Brothers, 
 K. N. Kudin, V. N. Staroverov, T. Keith, R. Kobayashi, J. Normand, 
 K. Raghavachari, A. Rendell, J. C. Burant, S. S. Iyengar, J. Tomasi, 
 M. Cossi, N. Rega, J. M. Millam, M. Klene, J. E. Knox, J. B. Cross, 
 V. Bakken, C. Adamo, J. Jaramillo, R. Gomperts, R. E. Stratmann, 
 O. Yazyev, A. J. Austin, R. Cammi, C. Pomelli, J. W. Ochterski, 
 R. L. Martin, K. Morokuma, V. G. Zakrzewski, G. A. Voth, 
 P. Salvador, J. J. Dannenberg, S. Dapprich, A. D. Daniels, 
 O. Farkas, J. B. Foresman, J. V. Ortiz, J. Cioslowski, 
 and D. J. Fox, Gaussian, Inc., Wallingford CT, 2013.
 
 ******************************************
 Gaussian 09:  ES64L-G09RevD.01 24-Apr-2013
                 9-Jun-2021 
 ******************************************
 %nprocshared=16
 Will use up to   16 processors via shared memory.
 %mem=25GB
 %chk=NHC22.chk
 ----------------------------------------------------------
 #p opt freq n12sx/6-311+g(d,p) scrf=(iefpcm,solvent=water)
 ----------------------------------------------------------
 1/14=-1,18=20,19=15,26=3,38=1/1,3;
 2/9=110,12=2,17=6,18=5,40=1/2;
 3/5=4,6=6,7=111,11=2,16=1,25=1,30=1,70=2201,71=1,72=1,74=-69/1,2,3;
 4//1;
 5/5=2,38=5,53=1/2;
 6/7=2,8=2,9=2,10=2,28=1/1;
 7//1,2,3,16;
 1/14=-1,18=20,19=15,26=3/3(2);
 2/9=110/2;
 99//99;
 2/9=110/2;
 3/5=4,6=6,7=111,11=2,16=1,25=1,30=1,70=2205,71=1,72=1,74=-69/1,2,3;
 4/5=5,16=3,69=1/1;
 5/5=2,38=5,53=1/2;
 7//1,2,3,16;
 1/14=-1,18=20,19=15,26=3/3(-5);
 2/9=110/2;
 6/7=2,8=2,9=2,10=2,19=2,28=1/1;
 99/9=1/99;
 Leave Link    1 at Wed Jun  9 01:05:29 2021, MaxMem=  3355443200 cpu:         0.7
 (Enter /usr/local/gqt/g09/l101.exe)
 -----
 TITLE
 -----
 Symbolic Z-matrix:
 Charge =  0 Multiplicity = 1
 C                    0    -1.12684  -0.10759  -0.1241 
 C                    0    -2.45241  -0.19854  -0.27297 
 S                    0    -2.89111  -1.58873  -0.21309 
 C                    0    -1.6864   -2.24989  -0.0181 
 N                    0    -0.60788  -1.25216   0.02889 
 C                    0    -3.36524   0.97074  -0.47434 
 C                    0    -0.35834   1.17704  -0.13665 
 C                    0     0.82215  -1.53394   0.21998 
 H                    0    -2.7693    1.91074  -0.47957 
 H                    0    -3.89602   0.8632   -1.4467 
 H                    0    -4.1087    1.0076    0.35311 
 H                    0    -1.05963   2.02804  -0.28756 
 H                    0     0.17146   1.3013    0.83425 
 H                    0     0.38414   1.15691  -0.96555 
 H                    0     0.97363  -2.63149   0.32591 
 H                    0     1.39348  -1.16441  -0.66081 
 H                    0     1.18189  -1.01954   1.13908 
 
 NAtoms=     17 NQM=       17 NQMF=       0 NMMI=      0 NMMIF=      0
                NMic=       0 NMicF=      0.
                    Isotopes and Nuclear Properties:
 (Nuclear quadrupole moments (NQMom) in fm**2, nuclear magnetic moments (NMagM)
  in nuclear magnetons)

  Atom         1           2           3           4           5           6           7           8           9          10
 IAtWgt=          12          12          32          12          14          12          12          12           1           1
 AtmWgt=  12.0000000  12.0000000  31.9720718  12.0000000  14.0030740  12.0000000  12.0000000  12.0000000   1.0078250   1.0078250
 NucSpn=           0           0           0           0           2           0           0           0           1           1
 AtZEff=   0.0000000   0.0000000   0.0000000   0.0000000   0.0000000   0.0000000   0.0000000   0.0000000   0.0000000   0.0000000
 NQMom=    0.0000000   0.0000000   0.0000000   0.0000000   2.0440000   0.0000000   0.0000000   0.0000000   0.0000000   0.0000000
 NMagM=    0.0000000   0.0000000   0.0000000   0.0000000   0.4037610   0.0000000   0.0000000   0.0000000   2.7928460   2.7928460
 AtZNuc=   6.0000000   6.0000000  16.0000000   6.0000000   7.0000000   6.0000000   6.0000000   6.0000000   1.0000000   1.0000000

  Atom        11          12          13          14          15          16          17
 IAtWgt=           1           1           1           1           1           1           1
 AtmWgt=   1.0078250   1.0078250   1.0078250   1.0078250   1.0078250   1.0078250   1.0078250
 NucSpn=           1           1           1           1           1           1           1
 AtZEff=   0.0000000   0.0000000   0.0000000   0.0000000   0.0000000   0.0000000   0.0000000
 NQMom=    0.0000000   0.0000000   0.0000000   0.0000000   0.0000000   0.0000000   0.0000000
 NMagM=    2.7928460   2.7928460   2.7928460   2.7928460   2.7928460   2.7928460   2.7928460
 AtZNuc=   1.0000000   1.0000000   1.0000000   1.0000000   1.0000000   1.0000000   1.0000000
 Leave Link  101 at Wed Jun  9 01:05:30 2021, MaxMem=  3355443200 cpu:         6.7
 (Enter /usr/local/gqt/g09/l103.exe)

 GradGradGradGradGradGradGradGradGradGradGradGradGradGradGradGradGradGrad
 Berny optimization.
 Initialization pass.
                           ----------------------------
                           !    Initial Parameters    !
                           ! (Angstroms and Degrees)  !
 --------------------------                            --------------------------
 ! Name  Definition              Value          Derivative Info.                !
 --------------------------------------------------------------------------------
 ! R1    R(1,2)                  1.337          estimate D2E/DX2                !
 ! R2    R(1,5)                  1.266          estimate D2E/DX2                !
 ! R3    R(1,7)                  1.497          estimate D2E/DX2                !
 ! R4    R(2,3)                  1.459          estimate D2E/DX2                !
 ! R5    R(2,6)                  1.497          estimate D2E/DX2                !
 ! R6    R(3,4)                  1.388          estimate D2E/DX2                !
 ! R7    R(4,5)                  1.47           estimate D2E/DX2                !
 ! R8    R(5,8)                  1.47           estimate D2E/DX2                !
 ! R9    R(6,9)                  1.113          estimate D2E/DX2                !
 ! R10   R(6,10)                 1.113          estimate D2E/DX2                !
 ! R11   R(6,11)                 1.113          estimate D2E/DX2                !
 ! R12   R(7,12)                 1.113          estimate D2E/DX2                !
 ! R13   R(7,13)                 1.113          estimate D2E/DX2                !
 ! R14   R(7,14)                 1.113          estimate D2E/DX2                !
 ! R15   R(8,15)                 1.113          estimate D2E/DX2                !
 ! R16   R(8,16)                 1.113          estimate D2E/DX2                !
 ! R17   R(8,17)                 1.113          estimate D2E/DX2                !
 ! A1    A(2,1,5)              111.0            estimate D2E/DX2                !
 ! A2    A(2,1,7)              124.5            estimate D2E/DX2                !
 ! A3    A(5,1,7)              124.5            estimate D2E/DX2                !
 ! A4    A(1,2,3)              111.0            estimate D2E/DX2                !
 ! A5    A(1,2,6)              124.5            estimate D2E/DX2                !
 ! A6    A(3,2,6)              124.5            estimate D2E/DX2                !
 ! A7    A(2,3,4)              101.4588         estimate D2E/DX2                !
 ! A8    A(3,4,5)              108.5412         estimate D2E/DX2                !
 ! A9    A(1,5,4)              108.0            estimate D2E/DX2                !
 ! A10   A(1,5,8)              126.0            estimate D2E/DX2                !
 ! A11   A(4,5,8)              126.0001         estimate D2E/DX2                !
 ! A12   A(2,6,9)              109.5001         estimate D2E/DX2                !
 ! A13   A(2,6,10)             109.4418         estimate D2E/DX2                !
 ! A14   A(2,6,11)             109.4618         estimate D2E/DX2                !
 ! A15   A(9,6,10)             109.4419         estimate D2E/DX2                !
 ! A16   A(9,6,11)             109.4618         estimate D2E/DX2                !
 ! A17   A(10,6,11)            109.52           estimate D2E/DX2                !
 ! A18   A(1,7,12)             109.5            estimate D2E/DX2                !
 ! A19   A(1,7,13)             109.4419         estimate D2E/DX2                !
 ! A20   A(1,7,14)             109.4618         estimate D2E/DX2                !
 ! A21   A(12,7,13)            109.4418         estimate D2E/DX2                !
 ! A22   A(12,7,14)            109.4618         estimate D2E/DX2                !
 ! A23   A(13,7,14)            109.5199         estimate D2E/DX2                !
 ! A24   A(5,8,15)             109.5            estimate D2E/DX2                !
 ! A25   A(5,8,16)             109.4418         estimate D2E/DX2                !
 ! A26   A(5,8,17)             109.4619         estimate D2E/DX2                !
 ! A27   A(15,8,16)            109.4418         estimate D2E/DX2                !
 ! A28   A(15,8,17)            109.4618         estimate D2E/DX2                !
 ! A29   A(16,8,17)            109.52           estimate D2E/DX2                !
 ! D1    D(5,1,2,3)              0.0            estimate D2E/DX2                !
 ! D2    D(5,1,2,6)            180.0            estimate D2E/DX2                !
 ! D3    D(7,1,2,3)           -180.0            estimate D2E/DX2                !
 ! D4    D(7,1,2,6)              0.0            estimate D2E/DX2                !
 ! D5    D(2,1,5,4)              0.0            estimate D2E/DX2                !
 ! D6    D(2,1,5,8)            180.0            estimate D2E/DX2                !
 ! D7    D(7,1,5,4)            180.0            estimate D2E/DX2                !
 ! D8    D(7,1,5,8)              0.0            estimate D2E/DX2                !
 ! D9    D(2,1,7,12)             0.0            estimate D2E/DX2                !
 ! D10   D(2,1,7,13)           119.9637         estimate D2E/DX2                !
 ! D11   D(2,1,7,14)          -120.0004         estimate D2E/DX2                !
 ! D12   D(5,1,7,12)          -180.0            estimate D2E/DX2                !
 ! D13   D(5,1,7,13)           -60.0363         estimate D2E/DX2                !
 ! D14   D(5,1,7,14)            59.9996         estimate D2E/DX2                !
 ! D15   D(1,2,3,4)              0.0            estimate D2E/DX2                !
 ! D16   D(6,2,3,4)           -180.0            estimate D2E/DX2                !
 ! D17   D(1,2,6,9)              0.0            estimate D2E/DX2                !
 ! D18   D(1,2,6,10)           119.9637         estimate D2E/DX2                !
 ! D19   D(1,2,6,11)          -120.0004         estimate D2E/DX2                !
 ! D20   D(3,2,6,9)            180.0            estimate D2E/DX2                !
 ! D21   D(3,2,6,10)           -60.0363         estimate D2E/DX2                !
 ! D22   D(3,2,6,11)            59.9996         estimate D2E/DX2                !
 ! D23   D(2,3,4,5)              0.0            estimate D2E/DX2                !
 ! D24   D(3,4,5,1)              0.0            estimate D2E/DX2                !
 ! D25   D(3,4,5,8)           -180.0            estimate D2E/DX2                !
 ! D26   D(1,5,8,15)          -180.0            estimate D2E/DX2                !
 ! D27   D(1,5,8,16)           -60.0364         estimate D2E/DX2                !
 ! D28   D(1,5,8,17)            59.9997         estimate D2E/DX2                !
 ! D29   D(4,5,8,15)             0.0            estimate D2E/DX2                !
 ! D30   D(4,5,8,16)           119.9636         estimate D2E/DX2                !
 ! D31   D(4,5,8,17)          -120.0003         estimate D2E/DX2                !
 --------------------------------------------------------------------------------
 Trust Radius=3.00D-01 FncErr=1.00D-07 GrdErr=1.00D-06
 Number of steps in this run=     87 maximum allowed number of steps=    102.
 GradGradGradGradGradGradGradGradGradGradGradGradGradGradGradGradGradGrad

 Leave Link  103 at Wed Jun  9 01:05:30 2021, MaxMem=  3355443200 cpu:         0.1
 (Enter /usr/local/gqt/g09/l202.exe)
                          Input orientation:                          
 ---------------------------------------------------------------------
 Center     Atomic      Atomic             Coordinates (Angstroms)
 Number     Number       Type             X           Y           Z
 ---------------------------------------------------------------------
      1          6           0       -1.126835   -0.107586   -0.124096
      2          6           0       -2.452405   -0.198535   -0.272967
      3         16           0       -2.891114   -1.588725   -0.213092
      4          6           0       -1.686403   -2.249893   -0.018103
      5          7           0       -0.607881   -1.252155    0.028894
      6          6           0       -3.365235    0.970737   -0.474343
      7          6           0       -0.358344    1.177043   -0.136647
      8          6           0        0.822147   -1.533943    0.219983
      9          1           0       -2.769297    1.910737   -0.479567
     10          1           0       -3.896021    0.863196   -1.446696
     11          1           0       -4.108699    1.007599    0.353106
     12          1           0       -1.059629    2.028039   -0.287559
     13          1           0        0.171459    1.301296    0.834249
     14          1           0        0.384136    1.156910   -0.965554
     15          1           0        0.973633   -2.631487    0.325906
     16          1           0        1.393477   -1.164413   -0.660811
     17          1           0        1.181889   -1.019539    1.139082
 ---------------------------------------------------------------------
                    Distance matrix (angstroms):
                    1          2          3          4          5
     1  C    0.000000
     2  C    1.337000   0.000000
     3  S    2.305292   1.458999   0.000000
     4  C    2.216716   2.204492   1.387981   0.000000
     5  N    1.266001   2.145578   2.320558   1.470000   0.000000
     6  C    2.509161   1.497000   2.616083   3.660477   3.577359
     7  C    1.497000   2.509161   3.751032   3.677184   2.447586
     8  C    2.439552   3.570575   3.738832   2.619560   1.470000
     9  H    2.626341   2.142926   3.511707   4.323939   3.864471
    10  H    3.218708   2.142181   2.922932   4.076103   4.178988
    11  H    3.219142   2.142437   2.923011   4.076342   4.179393
    12  H    2.142926   2.626342   4.054734   4.331992   3.326243
    13  H    2.142181   3.218708   4.339182   4.097450   2.788562
    14  H    2.142437   3.219142   4.339582   4.097695   2.788659
    15  H    3.314294   4.244484   4.039077   2.709197   2.119424
    16  H    2.785125   3.984238   4.328766   3.328213   2.118685
    17  H    2.785226   3.984473   4.329169   3.328655   2.118939
                    6          7          8          9         10
     6  C    0.000000
     7  C    3.032820   0.000000
     8  C    4.928456   2.978286   0.000000
     9  H    1.113000   2.543343   5.025302   0.000000
    10  H    1.113000   3.785484   5.548442   1.817192   0.000000
    11  H    1.113000   3.785992   5.548910   1.817416   1.818068
    12  H    2.543343   1.113000   4.060344   1.724410   3.278045
    13  H    3.785484   1.113000   2.973096   3.278045   4.683912
    14  H    3.785991   1.113000   2.972884   3.278502   4.317118
    15  H    5.695805   4.061160   1.113001   5.940548   6.250477
    16  H    5.219097   2.970865   1.113000   5.178618   5.719056
    17  H    5.219260   2.970652   1.113000   5.178650   6.001342
                   11         12         13         14         15
    11  H    0.000000
    12  H    3.278502   0.000000
    13  H    4.317118   1.817192   0.000000
    14  H    4.684733   1.817416   1.818068   0.000000
    15  H    6.250903   5.120711   4.045822   4.045655   0.000000
    16  H    6.001633   4.043364   3.131813   2.549545   1.817192
    17  H    5.719910   4.043197   2.549543   3.130948   1.817416
                   16         17
    16  H    0.000000
    17  H    1.818068   0.000000
 Stoichiometry    C6H9NS
 Framework group  C1[X(C6H9NS)]
 Deg. of freedom    45
 Full point group                 C1      NOp   1
 Largest Abelian subgroup         C1      NOp   1
 Largest concise Abelian subgroup C1      NOp   1
                         Standard orientation:                         
 ---------------------------------------------------------------------
 Center     Atomic      Atomic             Coordinates (Angstroms)
 Number     Number       Type             X           Y           Z
 ---------------------------------------------------------------------
      1          6           0       -0.300349    0.615357   -0.000003
      2          6           0        0.965154    0.183996   -0.000004
      3         16           0        1.020596   -1.273950   -0.000013
      4          6           0       -0.328260   -1.601183   -0.000018
      5          7           0       -1.111105   -0.356976   -0.000011
      6          6           0        2.165759    1.078175    0.000004
      7          6           0       -0.704877    2.056663    0.000005
      8          6           0       -2.577835   -0.258983   -0.000013
      9          1           0        1.837050    2.141528    0.000010
     10          1           0        2.775978    0.879045    0.909262
     11          1           0        2.776584    0.878860   -0.908806
     12          1           0        0.204854    2.697880    0.000011
     13          1           0       -1.309675    2.271698   -0.909253
     14          1           0       -1.310275    2.271899    0.908815
     15          1           0       -3.018475   -1.281043   -0.000020
     16          1           0       -2.912531    0.288731    0.909249
     17          1           0       -2.912859    0.289284   -0.908820
 ---------------------------------------------------------------------
 Rotational constants (GHZ):      2.7400739      1.9430221      1.1630055
 Leave Link  202 at Wed Jun  9 01:05:30 2021, MaxMem=  3355443200 cpu:         0.0
 (Enter /usr/local/gqt/g09/l301.exe)
 Standard basis: 6-311+G(d,p) (5D, 7F)
 Ernie: Thresh=  0.10000D-02 Tol=  0.10000D-05 Strict=F.
 There are   246 symmetry adapted cartesian basis functions of A   symmetry.
 There are   238 symmetry adapted basis functions of A   symmetry.
   238 basis functions,   374 primitive gaussians,   246 cartesian basis functions
    34 alpha electrons       34 beta electrons
       nuclear repulsion energy       466.0571380358 Hartrees.
 IExCor= 5547 DFT=T Ex+Corr=N12SX ExCW=0 ScaHFX=  0.250000
 ScaDFX=  1.000000  1.000000  1.000000  1.000000 ScalE2=  1.000000  1.000000
 IRadAn=      0 IRanWt=     -1 IRanGd=            0 ICorTp=0 IEmpDi=  4
  HFx wShort=  0.110000 wLong=  0.000000 cFull=  0.000000 cShort=  1.000000 cLong=  0.000000
  DFx wShort=  0.110000 wLong=  0.000000 cFull=  0.000000 cShort=  1.000000 cLong=  0.000000
 NAtoms=   17 NActive=   17 NUniq=   17 SFac= 1.00D+00 NAtFMM=   60 NAOKFM=F Big=F
 Integral buffers will be    131072 words long.
 Raffenetti 2 integral format.
 Two-electron integral symmetry is turned on.
 ------------------------------------------------------------------------------
 Polarizable Continuum Model (PCM)
 =================================
 Model                : PCM (using non-symmetric T matrix).
 Atomic radii         : UFF (Universal Force Field).
 Polarization charges : Total charges.
 Charge compensation  : None.
 Solution method      : On-the-fly selection.
 Cavity type          : Scaled VdW (van der Waals Surface) (Alpha=1.100).
 Cavity algorithm     : GePol (No added spheres)
                        Default sphere list used, NSphG=   17.
                        Lebedev-Laikov grids with approx.  5.0 points / Ang**2.
                        Smoothing algorithm: Karplus/York (Gamma=1.0000).
                        Polarization charges: spherical gaussians, with
                                              point-specific exponents (IZeta= 3).
                        Self-potential: point-specific (ISelfS= 7).
                        Self-field    : sphere-specific E.n sum rule (ISelfD= 2).
 1st derivatives      : Analytical E(r).r(x)/FMM algorithm (CHGder, D1EAlg=3).
                        Cavity 1st derivative terms included.
 Solvent              : Water, Eps=  78.355300 Eps(inf)=   1.777849
 ------------------------------------------------------------------------------
 Spheres list:
 ISph  on   Nord     Re0    Alpha      Xe            Ye            Ze
    1   C      1    1.9255  1.100     -0.300349      0.615357     -0.000003
    2   C      2    1.9255  1.100      0.965154      0.183996     -0.000004
    3   S      3    2.0175  1.100      1.020596     -1.273950     -0.000013
    4   C      4    1.9255  1.100     -0.328260     -1.601183     -0.000018
    5   N      5    1.8300  1.100     -1.111105     -0.356976     -0.000011
    6   C      6    1.9255  1.100      2.165759      1.078175      0.000004
    7   C      7    1.9255  1.100     -0.704877      2.056663      0.000005
    8   C      8    1.9255  1.100     -2.577835     -0.258983     -0.000013
    9   H      9    1.4430  1.100      1.837050      2.141528      0.000010
   10   H     10    1.4430  1.100      2.775978      0.879045      0.909262
   11   H     11    1.4430  1.100      2.776584      0.878860     -0.908806
   12   H     12    1.4430  1.100      0.204854      2.697880      0.000011
   13   H     13    1.4430  1.100     -1.309675      2.271698     -0.909253
   14   H     14    1.4430  1.100     -1.310275      2.271899      0.908815
   15   H     15    1.4430  1.100     -3.018475     -1.281043     -0.000020
   16   H     16    1.4430  1.100     -2.912531      0.288731      0.909249
   17   H     17    1.4430  1.100     -2.912859      0.289284     -0.908820
 ------------------------------------------------------------------------------
 GePol: Number of generator spheres                  =      17
 GePol: Total number of spheres                      =      17
 GePol: Number of exposed spheres                    =      17 (100.00%)
 GePol: Number of points                             =    1411
 GePol: Average weight of points                     =       0.13
 GePol: Minimum weight of points                     =   0.20D-10
 GePol: Maximum weight of points                     =    0.20577
 GePol: Number of points with low weight             =      71
 GePol: Fraction of low-weight points (<1% of avg)   =       5.03%
 GePol: Cavity surface area                          =    186.175 Ang**2
 GePol: Cavity volume                                =    185.156 Ang**3
 Leave Link  301 at Wed Jun  9 01:05:30 2021, MaxMem=  3355443200 cpu:         0.8
 (Enter /usr/local/gqt/g09/l302.exe)
 NPDir=0 NMtPBC=     1 NCelOv=     1 NCel=       1 NClECP=     1 NCelD=      1
         NCelK=      1 NCelE2=     1 NClLst=     1 CellRange=     0.0.
 One-electron integrals computed using PRISM.
 NBasis=   238 RedAO= T EigKep=  4.47D-06  NBF=   238
 NBsUse=   238 1.00D-06 EigRej= -1.00D+00 NBFU=   238
 Precomputing XC quadrature grid using
 IXCGrd= 4 IRadAn=           0 IRanWt=          -1 IRanGd=           0 AccXCQ= 0.00D+00.
 Generated NRdTot=       0 NPtTot=           0 NUsed=           0 NTot=          32
 NSgBfM=   246   246   246   246   246 MxSgAt=    17 MxSgA2=    17.
 Leave Link  302 at Wed Jun  9 01:05:30 2021, MaxMem=  3355443200 cpu:         3.4
 (Enter /usr/local/gqt/g09/l303.exe)
 DipDrv:  MaxL=1.
 Leave Link  303 at Wed Jun  9 01:05:30 2021, MaxMem=  3355443200 cpu:         0.6
 (Enter /usr/local/gqt/g09/l401.exe)
 ExpMin= 4.05D-02 ExpMax= 9.34D+04 ExpMxC= 3.17D+03 IAcc=2 IRadAn=         4 AccDes= 0.00D+00
 Harris functional with IExCor= 5547 and IRadAn=       4 diagonalized for initial guess.
 HarFok:  IExCor= 5547 AccDes= 0.00D+00 IRadAn=         4 IDoV= 1 UseB2=F ITyADJ=14
 ICtDFT=  3500011 ScaDFX=  1.000000  1.000000  1.000000  1.000000
 FoFCou: FMM=F IPFlag=           0 FMFlag=      100000 FMFlg1=           0
         NFxFlg=           0 DoJE=T BraDBF=F KetDBF=T FulRan=T
         wScrn=  0.000000 ICntrl=     500 IOpCl=  0 I1Cent=   200000004 NGrid=           0
         NMat0=    1 NMatS0=      1 NMatT0=    0 NMatD0=    1 NMtDS0=    0 NMtDT0=    0
 Petite list used in FoFCou.
 Harris En= -671.377299109080    
 JPrj=0 DoOrth=F DoCkMO=F.
 Leave Link  401 at Wed Jun  9 01:05:31 2021, MaxMem=  3355443200 cpu:         9.1
 (Enter /usr/local/gqt/g09/l502.exe)
 Closed shell SCF:
 Using DIIS extrapolation, IDIIS=  1040.
 Integral symmetry usage will be decided dynamically.
 Keep R1 ints in memory in canonical form, NReq=816659283.
 IVT=      205873 IEndB=      205873 NGot=  3355443200 MDV=  2546318406
 LenX=  2546318406 LenY=  2546257449
 Requested convergence on RMS density matrix=1.00D-08 within 128 cycles.
 Requested convergence on MAX density matrix=1.00D-06.
 Requested convergence on             energy=1.00D-06.
 No special actions if energy rises.
 FoFCou: FMM=F IPFlag=           0 FMFlag=           0 FMFlg1=           0
         NFxFlg=           0 DoJE=F BraDBF=F KetDBF=F FulRan=T
         wScrn=  0.000000 ICntrl=     600 IOpCl=  0 I1Cent=           0 NGrid=           0
         NMat0=    1 NMatS0=  28441 NMatT0=    0 NMatD0=    1 NMtDS0=    0 NMtDT0=    0
 Symmetry not used in FoFCou.

 Cycle   1  Pass 1  IDiag  1:
 Inv3:  Mode=1 IEnd=     5972763.
 Iteration    1 A*A^-1 deviation from unit magnitude is 4.88D-15 for   1403.
 Iteration    1 A*A^-1 deviation from orthogonality  is 2.82D-15 for   1333   1170.
 Iteration    1 A^-1*A deviation from unit magnitude is 4.66D-15 for   1403.
 Iteration    1 A^-1*A deviation from orthogonality  is 1.46D-13 for   1194   1186.
 E= -686.431797823568    
 DIIS: error= 1.70D-01 at cycle   1 NSaved=   1.
 NSaved= 1 IEnMin= 1 EnMin= -686.431797823568     IErMin= 1 ErrMin= 1.70D-01
 ErrMax= 1.70D-01  0.00D+00 EMaxC= 1.00D-01 BMatC= 2.05D+00 BMatP= 2.05D+00
 IDIUse=3 WtCom= 0.00D+00 WtEn= 1.00D+00
 Coeff-Com:  0.100D+01
 Coeff-En:   0.100D+01
 Coeff:      0.100D+01
 Gap=     0.187 Goal=   None    Shift=    0.000
 DSYEVD-2 returned Info=       14459 IAlg= 4 N=   238 NDim=   238 NE2=    10698559 trying  DSYEV.
 GapD=    0.187 DampG=1.000 DampE=0.250 DampFc=0.2500 IDamp=-1.
 Damping current iteration by 2.50D-01
 RMSDP=1.38D-02 MaxDP=1.02D+00              OVMax= 1.90D-01

 Cycle   2  Pass 1  IDiag  1:
 E= -686.517216727565     Delta-E=       -0.085418903997 Rises=F Damp=T
 DIIS: error= 1.19D-01 at cycle   2 NSaved=   2.
 NSaved= 2 IEnMin= 2 EnMin= -686.517216727565     IErMin= 2 ErrMin= 1.19D-01
 ErrMax= 1.19D-01  0.00D+00 EMaxC= 1.00D-01 BMatC= 9.68D-01 BMatP= 2.05D+00
 IDIUse=3 WtCom= 0.00D+00 WtEn= 1.00D+00
 Coeff-Com: -0.187D+01 0.287D+01
 Coeff-En:   0.000D+00 0.100D+01
 Coeff:      0.000D+00 0.100D+01
 Gap=     0.178 Goal=   None    Shift=    0.000
 RMSDP=7.72D-03 MaxDP=3.89D-01 DE=-8.54D-02 OVMax= 9.63D-02

 Cycle   3  Pass 1  IDiag  1:
 E= -686.639164846685     Delta-E=       -0.121948119120 Rises=F Damp=F
 DIIS: error= 1.97D-02 at cycle   3 NSaved=   3.
 NSaved= 3 IEnMin= 3 EnMin= -686.639164846685     IErMin= 3 ErrMin= 1.97D-02
 ErrMax= 1.97D-02  0.00D+00 EMaxC= 1.00D-01 BMatC= 1.02D-01 BMatP= 9.68D-01
 IDIUse=3 WtCom= 8.03D-01 WtEn= 1.97D-01
 Coeff-Com:  0.164D+01-0.208D+01 0.144D+01
 Coeff-En:   0.129D-01 0.000D+00 0.987D+00
 Coeff:      0.132D+01-0.167D+01 0.135D+01
 Gap=     0.203 Goal=   None    Shift=    0.000
 RMSDP=4.76D-03 MaxDP=3.88D-01 DE=-1.22D-01 OVMax= 7.66D-02

 Cycle   4  Pass 1  IDiag  1:
 E= -686.672154351404     Delta-E=       -0.032989504718 Rises=F Damp=F
 DIIS: error= 9.88D-03 at cycle   4 NSaved=   4.
 NSaved= 4 IEnMin= 4 EnMin= -686.672154351404     IErMin= 4 ErrMin= 9.88D-03
 ErrMax= 9.88D-03  0.00D+00 EMaxC= 1.00D-01 BMatC= 1.45D-02 BMatP= 1.02D-01
 IDIUse=3 WtCom= 9.01D-01 WtEn= 9.88D-02
 Coeff-Com:  0.786D+00-0.102D+01 0.704D+00 0.531D+00
 Coeff-En:   0.000D+00 0.000D+00 0.605D-01 0.939D+00
 Coeff:      0.708D+00-0.920D+00 0.640D+00 0.572D+00
 Gap=     0.204 Goal=   None    Shift=    0.000
 RMSDP=1.89D-03 MaxDP=7.01D-02 DE=-3.30D-02 OVMax= 5.29D-02

 Cycle   5  Pass 1  IDiag  1:
 E= -686.681161629654     Delta-E=       -0.009007278250 Rises=F Damp=F
 DIIS: error= 4.66D-03 at cycle   5 NSaved=   5.
 NSaved= 5 IEnMin= 5 EnMin= -686.681161629654     IErMin= 5 ErrMin= 4.66D-03
 ErrMax= 4.66D-03  0.00D+00 EMaxC= 1.00D-01 BMatC= 1.93D-03 BMatP= 1.45D-02
 IDIUse=3 WtCom= 9.53D-01 WtEn= 4.66D-02
 Coeff-Com:  0.188D+00-0.245D+00 0.193D+00 0.321D+00 0.543D+00
 Coeff-En:   0.000D+00 0.000D+00 0.000D+00 0.165D+00 0.835D+00
 Coeff:      0.180D+00-0.234D+00 0.184D+00 0.313D+00 0.557D+00
 Gap=     0.204 Goal=   None    Shift=    0.000
 RMSDP=7.26D-04 MaxDP=3.13D-02 DE=-9.01D-03 OVMax= 1.89D-02

 Cycle   6  Pass 1  IDiag  1:
 E= -686.683125972638     Delta-E=       -0.001964342984 Rises=F Damp=F
 DIIS: error= 4.43D-04 at cycle   6 NSaved=   6.
 NSaved= 6 IEnMin= 6 EnMin= -686.683125972638     IErMin= 6 ErrMin= 4.43D-04
 ErrMax= 4.43D-04  0.00D+00 EMaxC= 1.00D-01 BMatC= 4.48D-05 BMatP= 1.93D-03
 IDIUse=3 WtCom= 9.96D-01 WtEn= 4.43D-03
 Coeff-Com:  0.337D-01-0.431D-01 0.420D-01 0.109D+00 0.259D+00 0.599D+00
 Coeff-En:   0.000D+00 0.000D+00 0.000D+00 0.000D+00 0.000D+00 0.100D+01
 Coeff:      0.336D-01-0.429D-01 0.418D-01 0.108D+00 0.258D+00 0.601D+00
 Gap=     0.203 Goal=   None    Shift=    0.000
 RMSDP=1.07D-04 MaxDP=3.88D-03 DE=-1.96D-03 OVMax= 2.47D-03

 Cycle   7  Pass 1  IDiag  1:
 E= -686.683167692577     Delta-E=       -0.000041719938 Rises=F Damp=F
 DIIS: error= 1.30D-04 at cycle   7 NSaved=   7.
 NSaved= 7 IEnMin= 7 EnMin= -686.683167692577     IErMin= 7 ErrMin= 1.30D-04
 ErrMax= 1.30D-04  0.00D+00 EMaxC= 1.00D-01 BMatC= 3.54D-06 BMatP= 4.48D-05
 IDIUse=3 WtCom= 9.99D-01 WtEn= 1.30D-03
 Coeff-Com: -0.114D-02 0.198D-02 0.287D-02 0.223D-01 0.762D-01 0.292D+00
 Coeff-Com:  0.606D+00
 Coeff-En:   0.000D+00 0.000D+00 0.000D+00 0.000D+00 0.000D+00 0.000D+00
 Coeff-En:   0.100D+01
 Coeff:     -0.114D-02 0.198D-02 0.286D-02 0.222D-01 0.761D-01 0.292D+00
 Coeff:      0.606D+00
 Gap=     0.202 Goal=   None    Shift=    0.000
 RMSDP=4.27D-05 MaxDP=4.95D-03 DE=-4.17D-05 OVMax= 8.22D-04

 Cycle   8  Pass 1  IDiag  1:
 E= -686.683170560486     Delta-E=       -0.000002867909 Rises=F Damp=F
 DIIS: error= 6.18D-05 at cycle   8 NSaved=   8.
 NSaved= 8 IEnMin= 8 EnMin= -686.683170560486     IErMin= 8 ErrMin= 6.18D-05
 ErrMax= 6.18D-05  0.00D+00 EMaxC= 1.00D-01 BMatC= 5.38D-07 BMatP= 3.54D-06
 IDIUse=1 WtCom= 1.00D+00 WtEn= 0.00D+00
 Coeff-Com: -0.185D-02 0.259D-02-0.592D-03 0.400D-02 0.216D-01 0.117D+00
 Coeff-Com:  0.349D+00 0.508D+00
 Coeff:     -0.185D-02 0.259D-02-0.592D-03 0.400D-02 0.216D-01 0.117D+00
 Coeff:      0.349D+00 0.508D+00
 Gap=     0.202 Goal=   None    Shift=    0.000
 RMSDP=1.39D-05 MaxDP=1.31D-03 DE=-2.87D-06 OVMax= 3.36D-04

 Cycle   9  Pass 1  IDiag  1:
 E= -686.683171063547     Delta-E=       -0.000000503061 Rises=F Damp=F
 DIIS: error= 1.92D-05 at cycle   9 NSaved=   9.
 NSaved= 9 IEnMin= 9 EnMin= -686.683171063547     IErMin= 9 ErrMin= 1.92D-05
 ErrMax= 1.92D-05  0.00D+00 EMaxC= 1.00D-01 BMatC= 4.88D-08 BMatP= 5.38D-07
 IDIUse=1 WtCom= 1.00D+00 WtEn= 0.00D+00
 Coeff-Com: -0.372D-03 0.505D-03-0.348D-03-0.321D-03 0.216D-02 0.255D-01
 Coeff-Com:  0.104D+00 0.272D+00 0.597D+00
 Coeff:     -0.372D-03 0.505D-03-0.348D-03-0.321D-03 0.216D-02 0.255D-01
 Coeff:      0.104D+00 0.272D+00 0.597D+00
 Gap=     0.202 Goal=   None    Shift=    0.000
 RMSDP=4.67D-06 MaxDP=4.77D-04 DE=-5.03D-07 OVMax= 8.28D-05

 Cycle  10  Pass 1  IDiag  1:
 E= -686.683171108759     Delta-E=       -0.000000045212 Rises=F Damp=F
 DIIS: error= 5.91D-06 at cycle  10 NSaved=  10.
 NSaved=10 IEnMin=10 EnMin= -686.683171108759     IErMin=10 ErrMin= 5.91D-06
 ErrMax= 5.91D-06  0.00D+00 EMaxC= 1.00D-01 BMatC= 4.39D-09 BMatP= 4.88D-08
 IDIUse=1 WtCom= 1.00D+00 WtEn= 0.00D+00
 Coeff-Com:  0.172D-03-0.232D-03 0.605D-05-0.422D-03-0.943D-03 0.148D-02
 Coeff-Com:  0.173D-01 0.874D-01 0.299D+00 0.596D+00
 Coeff:      0.172D-03-0.232D-03 0.605D-05-0.422D-03-0.943D-03 0.148D-02
 Coeff:      0.173D-01 0.874D-01 0.299D+00 0.596D+00
 Gap=     0.202 Goal=   None    Shift=    0.000
 RMSDP=7.68D-07 MaxDP=3.68D-05 DE=-4.52D-08 OVMax= 1.63D-05

 Cycle  11  Pass 1  IDiag  1:
 E= -686.683171112832     Delta-E=       -0.000000004073 Rises=F Damp=F
 DIIS: error= 6.02D-07 at cycle  11 NSaved=  11.
 NSaved=11 IEnMin=11 EnMin= -686.683171112832     IErMin=11 ErrMin= 6.02D-07
 ErrMax= 6.02D-07  0.00D+00 EMaxC= 1.00D-01 BMatC= 6.17D-11 BMatP= 4.39D-09
 IDIUse=1 WtCom= 1.00D+00 WtEn= 0.00D+00
 Coeff-Com:  0.672D-04-0.916D-04 0.302D-05-0.151D-03-0.422D-03-0.315D-03
 Coeff-Com:  0.253D-02 0.223D-01 0.833D-01 0.206D+00 0.687D+00
 Coeff:      0.672D-04-0.916D-04 0.302D-05-0.151D-03-0.422D-03-0.315D-03
 Coeff:      0.253D-02 0.223D-01 0.833D-01 0.206D+00 0.687D+00
 Gap=     0.202 Goal=   None    Shift=    0.000
 RMSDP=4.41D-07 MaxDP=4.55D-05 DE=-4.07D-09 OVMax= 2.85D-06

 Cycle  12  Pass 1  IDiag  1:
 E= -686.683171112876     Delta-E=       -0.000000000044 Rises=F Damp=F
 DIIS: error= 2.11D-07 at cycle  12 NSaved=  12.
 NSaved=12 IEnMin=12 EnMin= -686.683171112876     IErMin=12 ErrMin= 2.11D-07
 ErrMax= 2.11D-07  0.00D+00 EMaxC= 1.00D-01 BMatC= 1.21D-11 BMatP= 6.17D-11
 IDIUse=1 WtCom= 1.00D+00 WtEn= 0.00D+00
 Coeff-Com:  0.192D-04-0.263D-04 0.871D-06-0.439D-04-0.139D-03-0.317D-03
 Coeff-Com: -0.553D-03 0.269D-02 0.124D-01 0.465D-01 0.342D+00 0.598D+00
 Coeff:      0.192D-04-0.263D-04 0.871D-06-0.439D-04-0.139D-03-0.317D-03
 Coeff:     -0.553D-03 0.269D-02 0.124D-01 0.465D-01 0.342D+00 0.598D+00
 Gap=     0.202 Goal=   None    Shift=    0.000
 RMSDP=9.89D-08 MaxDP=4.95D-06 DE=-4.41D-11 OVMax= 8.74D-07

 Cycle  13  Pass 1  IDiag  1:
 E= -686.683171112907     Delta-E=       -0.000000000031 Rises=F Damp=F
 DIIS: error= 5.31D-08 at cycle  13 NSaved=  13.
 NSaved=13 IEnMin=13 EnMin= -686.683171112907     IErMin=13 ErrMin= 5.31D-08
 ErrMax= 5.31D-08  0.00D+00 EMaxC= 1.00D-01 BMatC= 8.22D-13 BMatP= 1.21D-11
 IDIUse=1 WtCom= 1.00D+00 WtEn= 0.00D+00
 Coeff-Com:  0.131D-06-0.237D-06-0.261D-06-0.262D-05-0.810D-05-0.811D-04
 Coeff-Com: -0.549D-03-0.151D-02-0.456D-02-0.520D-02 0.597D-01 0.247D+00
 Coeff-Com:  0.706D+00
 Coeff:      0.131D-06-0.237D-06-0.261D-06-0.262D-05-0.810D-05-0.811D-04
 Coeff:     -0.549D-03-0.151D-02-0.456D-02-0.520D-02 0.597D-01 0.247D+00
 Coeff:      0.706D+00
 Gap=     0.202 Goal=   None    Shift=    0.000
 RMSDP=4.27D-08 MaxDP=2.75D-06 DE=-3.12D-11 OVMax= 3.22D-07

 Cycle  14  Pass 1  IDiag  1:
 E= -686.683171112897     Delta-E=        0.000000000010 Rises=F Damp=F
 DIIS: error= 1.08D-08 at cycle  14 NSaved=  14.
 NSaved=14 IEnMin=13 EnMin= -686.683171112907     IErMin=14 ErrMin= 1.08D-08
 ErrMax= 1.08D-08  0.00D+00 EMaxC= 1.00D-01 BMatC= 2.22D-14 BMatP= 8.22D-13
 IDIUse=1 WtCom= 1.00D+00 WtEn= 0.00D+00
 Coeff-Com: -0.295D-06 0.393D-06-0.235D-07 0.224D-06 0.565D-06-0.202D-04
 Coeff-Com: -0.183D-03-0.610D-03-0.187D-02-0.320D-02 0.129D-01 0.654D-01
 Coeff-Com:  0.240D+00 0.687D+00
 Coeff:     -0.295D-06 0.393D-06-0.235D-07 0.224D-06 0.565D-06-0.202D-04
 Coeff:     -0.183D-03-0.610D-03-0.187D-02-0.320D-02 0.129D-01 0.654D-01
 Coeff:      0.240D+00 0.687D+00
 Gap=     0.202 Goal=   None    Shift=    0.000
 RMSDP=5.46D-09 MaxDP=2.44D-07 DE= 9.78D-12 OVMax= 4.29D-08

 Error on total polarization charges =  0.01805
 SCF Done:  E(RN12SX) =  -686.683171113     A.U. after   14 cycles
            NFock= 14  Conv=0.55D-08     -V/T= 2.0013
 KE= 6.858075741062D+02 PE=-2.549399220923D+03 EE= 7.108513376678D+02
 Leave Link  502 at Wed Jun  9 01:06:04 2021, MaxMem=  3355443200 cpu:       439.5
 (Enter /usr/local/gqt/g09/l601.exe)
 Copying SCF densities to generalized density rwf, IOpCl= 0 IROHF=0.

 **********************************************************************

            Population analysis using the SCF density.

 **********************************************************************

 Orbital symmetries:
       Occupied  (A) (A) (A) (A) (A) (A) (A) (A) (A) (A) (A) (A)
                 (A) (A) (A) (A) (A) (A) (A) (A) (A) (A) (A) (A)
                 (A) (A) (A) (A) (A) (A) (A) (A) (A) (A)
       Virtual   (A) (A) (A) (A) (A) (A) (A) (A) (A) (A) (A) (A)
                 (A) (A) (A) (A) (A) (A) (A) (A) (A) (A) (A) (A)
                 (A) (A) (A) (A) (A) (A) (A) (A) (A) (A) (A) (A)
                 (A) (A) (A) (A) (A) (A) (A) (A) (A) (A) (A) (A)
                 (A) (A) (A) (A) (A) (A) (A) (A) (A) (A) (A) (A)
                 (A) (A) (A) (A) (A) (A) (A) (A) (A) (A) (A) (A)
                 (A) (A) (A) (A) (A) (A) (A) (A) (A) (A) (A) (A)
                 (A) (A) (A) (A) (A) (A) (A) (A) (A) (A) (A) (A)
                 (A) (A) (A) (A) (A) (A) (A) (A) (A) (A) (A) (A)
                 (A) (A) (A) (A) (A) (A) (A) (A) (A) (A) (A) (A)
                 (A) (A) (A) (A) (A) (A) (A) (A) (A) (A) (A) (A)
                 (A) (A) (A) (A) (A) (A) (A) (A) (A) (A) (A) (A)
                 (A) (A) (A) (A) (A) (A) (A) (A) (A) (A) (A) (A)
                 (A) (A) (A) (A) (A) (A) (A) (A) (A) (A) (A) (A)
                 (A) (A) (A) (A) (A) (A) (A) (A) (A) (A) (A) (A)
                 (A) (A) (A) (A) (A) (A) (A) (A) (A) (A) (A) (A)
                 (A) (A) (A) (A) (A) (A) (A) (A) (A) (A) (A) (A)
 The electronic state is 1-A.
 Alpha  occ. eigenvalues --  -89.12912 -14.42503 -10.26495 -10.26128 -10.23213
 Alpha  occ. eigenvalues --  -10.22414 -10.20904 -10.20194  -7.85699  -5.89515
 Alpha  occ. eigenvalues --   -5.89025  -5.89002  -1.04001  -0.89776  -0.79784
 Alpha  occ. eigenvalues --   -0.74072  -0.71103  -0.65810  -0.59165  -0.56329
 Alpha  occ. eigenvalues --   -0.50028  -0.49238  -0.43135  -0.43046  -0.41527
 Alpha  occ. eigenvalues --   -0.41013  -0.39927  -0.38765  -0.38137  -0.36838
 Alpha  occ. eigenvalues --   -0.33906  -0.30210  -0.22482  -0.21098
 Alpha virt. eigenvalues --   -0.00852  -0.00771   0.00937   0.01155   0.01793
 Alpha virt. eigenvalues --    0.02972   0.03049   0.03419   0.04155   0.05041
 Alpha virt. eigenvalues --    0.05271   0.05948   0.06458   0.06839   0.08166
 Alpha virt. eigenvalues --    0.08511   0.08721   0.10327   0.10559   0.11668
 Alpha virt. eigenvalues --    0.11683   0.12880   0.13145   0.13891   0.14228
 Alpha virt. eigenvalues --    0.15146   0.15991   0.16096   0.16558   0.17958
 Alpha virt. eigenvalues --    0.19159   0.19180   0.19547   0.19817   0.21618
 Alpha virt. eigenvalues --    0.22454   0.22645   0.22869   0.23242   0.24392
 Alpha virt. eigenvalues --    0.24838   0.25902   0.27274   0.28161   0.29511
 Alpha virt. eigenvalues --    0.31683   0.32139   0.32904   0.33861   0.37597
 Alpha virt. eigenvalues --    0.38453   0.39785   0.42966   0.43288   0.44411
 Alpha virt. eigenvalues --    0.47076   0.48130   0.49826   0.50043   0.52628
 Alpha virt. eigenvalues --    0.53648   0.55968   0.57211   0.57252   0.58562
 Alpha virt. eigenvalues --    0.58838   0.60558   0.60781   0.62804   0.63681
 Alpha virt. eigenvalues --    0.64267   0.65895   0.66344   0.67447   0.70153
 Alpha virt. eigenvalues --    0.70892   0.72864   0.74287   0.74560   0.76643
 Alpha virt. eigenvalues --    0.76968   0.79179   0.81423   0.85272   0.86692
 Alpha virt. eigenvalues --    0.89794   0.91418   0.94023   0.95111   0.97789
 Alpha virt. eigenvalues --    0.98517   1.04409   1.06329   1.07154   1.12848
 Alpha virt. eigenvalues --    1.15264   1.17691   1.24590   1.26409   1.28172
 Alpha virt. eigenvalues --    1.32723   1.35173   1.37565   1.41240   1.42742
 Alpha virt. eigenvalues --    1.42755   1.44905   1.45136   1.45929   1.52102
 Alpha virt. eigenvalues --    1.52730   1.53795   1.54251   1.55757   1.57666
 Alpha virt. eigenvalues --    1.58551   1.62336   1.66193   1.66712   1.67757
 Alpha virt. eigenvalues --    1.71180   1.72693   1.73270   1.75685   1.75691
 Alpha virt. eigenvalues --    1.76566   1.80911   1.83025   1.85901   1.86231
 Alpha virt. eigenvalues --    1.90110   1.95039   1.95819   1.97271   2.02323
 Alpha virt. eigenvalues --    2.02699   2.05229   2.05431   2.08938   2.14456
 Alpha virt. eigenvalues --    2.19487   2.22055   2.23880   2.27419   2.33520
 Alpha virt. eigenvalues --    2.35128   2.38750   2.42262   2.43151   2.44119
 Alpha virt. eigenvalues --    2.44211   2.46069   2.47377   2.49478   2.51222
 Alpha virt. eigenvalues --    2.52794   2.54686   2.56520   2.58871   2.61318
 Alpha virt. eigenvalues --    2.61358   2.64484   2.67531   2.72014   2.72392
 Alpha virt. eigenvalues --    2.84711   2.84746   2.86876   2.91001   2.97330
 Alpha virt. eigenvalues --    3.02233   3.02315   3.05473   3.11746   3.21773
 Alpha virt. eigenvalues --    3.29134   3.33979   3.44555   3.68033   3.68763
 Alpha virt. eigenvalues --    3.68919   3.74912   3.75311   3.78331   3.78658
 Alpha virt. eigenvalues --    3.84576   3.92256   3.92327   4.05749   4.38434
 Alpha virt. eigenvalues --    4.82298   4.98567   8.35644  17.11400  17.53353
 Alpha virt. eigenvalues --   17.62971  23.65437  23.70653  23.77481  23.80178
 Alpha virt. eigenvalues --   23.83105  24.16845  35.42102 188.66866
          Condensed to atoms (all electrons):
               1          2          3          4          5          6
     1  C   10.768987  -2.491820  -0.440963  -0.419658  -0.135932   0.775467
     2  C   -2.491820   9.927573  -1.217516   0.444643  -0.411788  -1.458808
     3  S   -0.440963  -1.217516  17.485762  -0.125281   0.183911  -0.589193
     4  C   -0.419658   0.444643  -0.125281   6.546231   0.371191  -0.141164
     5  N   -0.135932  -0.411788   0.183911   0.371191   6.868112   0.033080
     6  C    0.775467  -1.458808  -0.589193  -0.141164   0.033080   7.427135
     7  C   -1.568574   0.837087   0.363633  -0.114921  -0.188553  -0.448525
     8  C   -0.324172   0.067010   0.053411  -0.117389   0.282222   0.031983
     9  H    0.094839  -0.110510  -0.027549  -0.000210  -0.003882   0.385247
    10  H   -0.075271   0.032903   0.014595   0.008417   0.001858   0.376044
    11  H   -0.075143   0.032778   0.014608   0.008413   0.001853   0.376042
    12  H   -0.078503  -0.005552  -0.000525  -0.004654   0.014080   0.002250
    13  H    0.021910  -0.037838  -0.002035   0.007483  -0.006002  -0.004024
    14  H    0.021942  -0.037788  -0.002020   0.007466  -0.006017  -0.004006
    15  H    0.008605   0.007158  -0.002640   0.019128  -0.041025   0.000599
    16  H   -0.015477   0.013139   0.001491  -0.010485  -0.039893  -0.000115
    17  H   -0.015394   0.013092   0.001506  -0.010470  -0.039905  -0.000124
               7          8          9         10         11         12
     1  C   -1.568574  -0.324172   0.094839  -0.075271  -0.075143  -0.078503
     2  C    0.837087   0.067010  -0.110510   0.032903   0.032778  -0.005552
     3  S    0.363633   0.053411  -0.027549   0.014595   0.014608  -0.000525
     4  C   -0.114921  -0.117389  -0.000210   0.008417   0.008413  -0.004654
     5  N   -0.188553   0.282222  -0.003882   0.001858   0.001853   0.014080
     6  C   -0.448525   0.031983   0.385247   0.376044   0.376042   0.002250
     7  C    7.061715  -0.241109   0.012583   0.001872   0.001892   0.432089
     8  C   -0.241109   5.282771  -0.001043  -0.000181  -0.000180   0.002092
     9  H    0.012583  -0.001043   0.522134  -0.021752  -0.021729   0.015071
    10  H    0.001872  -0.000181  -0.021752   0.512379  -0.031235  -0.000067
    11  H    0.001892  -0.000180  -0.021729  -0.031235   0.512338  -0.000067
    12  H    0.432089   0.002092   0.015071  -0.000067  -0.000067   0.494905
    13  H    0.374186   0.002598  -0.000188  -0.000129   0.000224  -0.020347
    14  H    0.374087   0.002620  -0.000188   0.000224  -0.000129  -0.020329
    15  H   -0.001411   0.382859   0.000001  -0.000001  -0.000001  -0.000003
    16  H   -0.001539   0.421598   0.000001  -0.000010   0.000005  -0.000135
    17  H   -0.001514   0.421515   0.000001   0.000005  -0.000010  -0.000134
              13         14         15         16         17
     1  C    0.021910   0.021942   0.008605  -0.015477  -0.015394
     2  C   -0.037838  -0.037788   0.007158   0.013139   0.013092
     3  S   -0.002035  -0.002020  -0.002640   0.001491   0.001506
     4  C    0.007483   0.007466   0.019128  -0.010485  -0.010470
     5  N   -0.006002  -0.006017  -0.041025  -0.039893  -0.039905
     6  C   -0.004024  -0.004006   0.000599  -0.000115  -0.000124
     7  C    0.374186   0.374087  -0.001411  -0.001539  -0.001514
     8  C    0.002598   0.002620   0.382859   0.421598   0.421515
     9  H   -0.000188  -0.000188   0.000001   0.000001   0.000001
    10  H   -0.000129   0.000224  -0.000001  -0.000010   0.000005
    11  H    0.000224  -0.000129  -0.000001   0.000005  -0.000010
    12  H   -0.020347  -0.020329  -0.000003  -0.000135  -0.000134
    13  H    0.500615  -0.029144  -0.000055  -0.000689   0.002368
    14  H   -0.029144   0.500609  -0.000055   0.002368  -0.000691
    15  H   -0.000055  -0.000055   0.473140  -0.018095  -0.018071
    16  H   -0.000689   0.002368  -0.018095   0.493922  -0.035925
    17  H    0.002368  -0.000691  -0.018071  -0.035925   0.493922
 Mulliken charges:
               1
     1  C   -0.050843
     2  C    0.396236
     3  S    0.288805
     4  C   -0.468742
     5  N    0.116690
     6  C   -0.761887
     7  C   -0.892997
     8  C   -0.266606
     9  H    0.157172
    10  H    0.180350
    11  H    0.180340
    12  H    0.169830
    13  H    0.191068
    14  H    0.191050
    15  H    0.189867
    16  H    0.189838
    17  H    0.189829
 Sum of Mulliken charges =   0.00000
 Mulliken charges with hydrogens summed into heavy atoms:
               1
     1  C   -0.050843
     2  C    0.396236
     3  S    0.288805
     4  C   -0.468742
     5  N    0.116690
     6  C   -0.244026
     7  C   -0.341049
     8  C    0.302929
 Electronic spatial extent (au):  <R**2>=           1049.9598
 Charge=              0.0000 electrons
 Dipole moment (field-independent basis, Debye):
    X=             -0.7261    Y=              6.1658    Z=              0.0001  Tot=              6.2084
 Quadrupole moment (field-independent basis, Debye-Ang):
   XX=            -46.8619   YY=            -64.3648   ZZ=            -55.0788
   XY=             -3.3809   XZ=             -0.0007   YZ=             -0.0005
 Traceless Quadrupole moment (field-independent basis, Debye-Ang):
   XX=              8.5733   YY=             -8.9297   ZZ=              0.3564
   XY=             -3.3809   XZ=             -0.0007   YZ=             -0.0005
 Octapole moment (field-independent basis, Debye-Ang**2):
  XXX=            -17.1352  YYY=             41.2931  ZZZ=              0.0009  XYY=              6.3131
  XXY=              4.4875  XXZ=             -0.0014  XZZ=             -0.4979  YZZ=              4.3260
  YYZ=              0.0004  XYZ=              0.0009
 Hexadecapole moment (field-independent basis, Debye-Ang**3):
 XXXX=           -732.8961 YYYY=           -656.8722 ZZZZ=            -82.3212 XXXY=             -1.6487
 XXXZ=             -0.0100 YYYX=            -24.5018 YYYZ=             -0.0002 ZZZX=             -0.0004
 ZZZY=             -0.0017 XXYY=           -233.4726 XXZZ=           -135.2110 YYZZ=           -116.1611
 XXYZ=             -0.0025 YYXZ=             -0.0016 ZZXY=             -9.2646
 N-N= 4.660571380358D+02 E-N=-2.549399219322D+03  KE= 6.858075741062D+02
 No NMR shielding tensors so no spin-rotation constants.
 Leave Link  601 at Wed Jun  9 01:06:04 2021, MaxMem=  3355443200 cpu:         1.8
 (Enter /usr/local/gqt/g09/l701.exe)
 Compute integral first derivatives.
 ... and contract with generalized density number  0.
 D1PCM: PCM CHGder 1st derivatives, ID1Alg=3 FixD1E=F DoIter=F DoCFld=F I1PDM=0.
 GePol: Maximum number of non-zero 1st derivatives   =     263
 Leave Link  701 at Wed Jun  9 01:06:05 2021, MaxMem=  3355443200 cpu:        14.1
 (Enter /usr/local/gqt/g09/l702.exe)
 L702 exits ... SP integral derivatives will be done elsewhere.
 Leave Link  702 at Wed Jun  9 01:06:05 2021, MaxMem=  3355443200 cpu:         0.3
 (Enter /usr/local/gqt/g09/l703.exe)
 Compute integral first derivatives, UseDBF=F ICtDFT=           0.
 Integral derivatives from FoFJK, PRISM(SPDF).
 Calling FoFJK, ICntrl=      2127 FMM=F ISym2X=0 I1Cent= 0 IOpClX= 0 NMat=1 NMatS=1 NMatT=0.
 FoFJK:  IHMeth= 1 ICntrl=    2127 DoSepK=T KAlg= 0 I1Cent=   0 FoldK=F
 IRaf=         1 NMat=   1 IRICut=       1 DoRegI=T DoRafI=F ISym2E= 0.
 FoFCou: FMM=F IPFlag=           0 FMFlag=      100000 FMFlg1=         800
         NFxFlg=           0 DoJE=F BraDBF=F KetDBF=F FulRan=T
         wScrn=  0.000000 ICntrl=    2527 IOpCl=  0 I1Cent=           0 NGrid=           0
         NMat0=    1 NMatS0=      1 NMatT0=    0 NMatD0=    1 NMtDS0=    0 NMtDT0=    0
 Symmetry not used in FoFCou.
 Leave Link  703 at Wed Jun  9 01:06:17 2021, MaxMem=  3355443200 cpu:       188.4
 (Enter /usr/local/gqt/g09/l716.exe)
 Dipole        =-2.85675366D-01 2.42580804D+00 5.48374428D-05
 ***** Axes restored to original set *****
 -------------------------------------------------------------------
 Center     Atomic                   Forces (Hartrees/Bohr)
 Number     Number              X              Y              Z
 -------------------------------------------------------------------
      1        6           0.011213451    0.105944736   -0.007198799
      2        6           0.015562386    0.274614846   -0.020183658
      3       16          -0.380014684   -0.078242929   -0.038491209
      4        6           0.364165455   -0.180329127    0.057376401
      5        7           0.007935223   -0.124623856    0.010956706
      6        6          -0.007381988    0.008122084   -0.001569126
      7        6           0.005183740    0.002621157    0.000443105
      8        6           0.000287127   -0.003196631    0.000236021
      9        1          -0.017680020   -0.013462857   -0.000985803
     10        1           0.004264856    0.006430797    0.014038150
     11        1           0.007545595    0.004216942   -0.013491965
     12        1           0.018538863   -0.012969259    0.003208402
     13        1          -0.004853970    0.001392106   -0.014714530
     14        1          -0.008127703    0.003591757    0.012778313
     15        1          -0.005243523    0.019360248   -0.002153430
     16        1          -0.007285971   -0.005631563    0.013505511
     17        1          -0.004108839   -0.007838451   -0.013754089
 -------------------------------------------------------------------
 Cartesian Forces:  Max     0.380014684 RMS     0.091474217
 Leave Link  716 at Wed Jun  9 01:06:17 2021, MaxMem=  3355443200 cpu:         0.4
 (Enter /usr/local/gqt/g09/l103.exe)

 GradGradGradGradGradGradGradGradGradGradGradGradGradGradGradGradGradGrad
 Berny optimization.
 FormGI is forming the generalized inverse of G from B-inverse, IUseBI=4.
 Internal  Forces:  Max     0.352385032 RMS     0.055176903
 Search for a local minimum.
 Step number   1 out of a maximum of   87
 All quantities printed in internal units (Hartrees-Bohrs-Radians)
 RMS Force = .55177D-01 SwitMx=.10000D-02 MixMth= 1
 Mixed Optimization -- RFO/linear search
 Second derivative matrix not updated -- first step.
 ITU=  0
     Eigenvalues ---    0.00766   0.00806   0.00806   0.01619   0.01941
     Eigenvalues ---    0.02200   0.02836   0.03913   0.07535   0.07539
     Eigenvalues ---    0.07557   0.07557   0.07561   0.07561   0.16000
     Eigenvalues ---    0.16000   0.16000   0.16000   0.16000   0.16000
     Eigenvalues ---    0.16000   0.16000   0.16000   0.25000   0.25000
     Eigenvalues ---    0.25000   0.25000   0.25000   0.32284   0.32284
     Eigenvalues ---    0.32284   0.32284   0.32284   0.32284   0.32284
     Eigenvalues ---    0.32284   0.32284   0.32694   0.32694   0.34593
     Eigenvalues ---    0.35740   0.54896   0.72301   0.87389   1.22602
 RFO step:  Lambda=-2.00129371D-01 EMin= 7.65816464D-03
 Linear search not attempted -- first point.
 Maximum step size (   0.300) exceeded in Quadratic search.
    -- Step size scaled by   0.686
 Iteration  1 RMS(Cart)=  0.05913225 RMS(Int)=  0.00093364
 Iteration  2 RMS(Cart)=  0.00131920 RMS(Int)=  0.00021901
 Iteration  3 RMS(Cart)=  0.00000087 RMS(Int)=  0.00021901
 ITry= 1 IFail=0 DXMaxC= 2.22D-01 DCOld= 1.00D+10 DXMaxT= 3.00D-01 DXLimC= 3.00D+00 Rises=F
 Variable       Old X    -DE/DX   Delta X   Delta X   Delta X     New X
                                 (Linear)    (Quad)   (Total)
    R1        2.52656   0.06951   0.00000   0.05509   0.05562   2.58218
    R2        2.39239   0.14472   0.00000   0.08815   0.08832   2.48072
    R3        2.82892   0.00090   0.00000   0.00117   0.00117   2.83009
    R4        2.75711   0.25601   0.00000   0.16555   0.16574   2.92284
    R5        2.82892   0.01249   0.00000   0.01625   0.01625   2.84517
    R6        2.62290   0.35239   0.00000   0.16833   0.16789   2.79080
    R7        2.77790  -0.03337   0.00000  -0.04836  -0.04876   2.72913
    R8        2.77790  -0.01670   0.00000  -0.02055  -0.02055   2.75735
    R9        2.10327  -0.02084   0.00000  -0.02734  -0.02734   2.07593
   R10        2.10327  -0.01492   0.00000  -0.01957  -0.01957   2.08369
   R11        2.10327  -0.01493   0.00000  -0.01959  -0.01959   2.08368
   R12        2.10327  -0.02203   0.00000  -0.02890  -0.02890   2.07436
   R13        2.10327  -0.01499   0.00000  -0.01967  -0.01967   2.08360
   R14        2.10326  -0.01501   0.00000  -0.01969  -0.01969   2.08358
   R15        2.10327  -0.02001   0.00000  -0.02626  -0.02626   2.07701
   R16        2.10326  -0.01629   0.00000  -0.02138  -0.02138   2.08189
   R17        2.10326  -0.01631   0.00000  -0.02139  -0.02139   2.08187
    A1        1.93731   0.03441   0.00000   0.01108   0.01180   1.94912
    A2        2.17293   0.00258   0.00000   0.02461   0.02426   2.19719
    A3        2.17294  -0.03699   0.00000  -0.03570  -0.03606   2.13688
    A4        1.93732  -0.03768   0.00000  -0.05254  -0.05178   1.88554
    A5        2.17293   0.03117   0.00000   0.04507   0.04469   2.21762
    A6        2.17294   0.00651   0.00000   0.00747   0.00709   2.18003
    A7        1.77079  -0.03418   0.00000   0.00969   0.00941   1.78020
    A8        1.89440  -0.03086   0.00000  -0.03108  -0.03217   1.86223
    A9        1.88496   0.06830   0.00000   0.06285   0.06274   1.94770
   A10        2.19911  -0.02960   0.00000  -0.02449  -0.02443   2.17468
   A11        2.19912  -0.03870   0.00000  -0.03836  -0.03831   2.16081
   A12        1.91114   0.00932   0.00000   0.01791   0.01780   1.92894
   A13        1.91012   0.00559   0.00000   0.01057   0.01049   1.92061
   A14        1.91047   0.00554   0.00000   0.01048   0.01040   1.92087
   A15        1.91012  -0.00709   0.00000  -0.01334  -0.01344   1.89668
   A16        1.91047  -0.00710   0.00000  -0.01338  -0.01348   1.89699
   A17        1.91148  -0.00625   0.00000  -0.01223  -0.01228   1.89920
   A18        1.91114   0.00782   0.00000   0.01523   0.01517   1.92630
   A19        1.91012   0.00355   0.00000   0.00659   0.00655   1.91667
   A20        1.91047   0.00351   0.00000   0.00651   0.00647   1.91694
   A21        1.91012  -0.00493   0.00000  -0.00903  -0.00910   1.90102
   A22        1.91047  -0.00494   0.00000  -0.00907  -0.00914   1.90133
   A23        1.91148  -0.00501   0.00000  -0.01023  -0.01024   1.90124
   A24        1.91114  -0.00468   0.00000  -0.00915  -0.00914   1.90199
   A25        1.91012   0.00232   0.00000   0.00454   0.00453   1.91465
   A26        1.91047   0.00227   0.00000   0.00443   0.00443   1.91490
   A27        1.91012   0.00069   0.00000   0.00110   0.00110   1.91122
   A28        1.91047   0.00069   0.00000   0.00106   0.00107   1.91154
   A29        1.91149  -0.00129   0.00000  -0.00199  -0.00200   1.90948
    D1        0.00000   0.00000   0.00000   0.00000   0.00000   0.00000
    D2        3.14159   0.00000   0.00000   0.00001   0.00001  -3.14159
    D3       -3.14159   0.00000   0.00000   0.00000   0.00000  -3.14159
    D4        0.00000   0.00000   0.00000   0.00001   0.00001   0.00001
    D5        0.00000   0.00000   0.00000   0.00000   0.00000   0.00000
    D6        3.14159   0.00000   0.00000   0.00000   0.00000   3.14159
    D7        3.14159   0.00000   0.00000   0.00000   0.00000   3.14159
    D8        0.00000   0.00000   0.00000   0.00000   0.00000  -0.00001
    D9        0.00000  -0.00001   0.00000  -0.00003  -0.00003  -0.00003
   D10        2.09376   0.00091   0.00000   0.00226   0.00229   2.09605
   D11       -2.09440  -0.00090   0.00000  -0.00224  -0.00226  -2.09666
   D12       -3.14159  -0.00001   0.00000  -0.00003  -0.00003   3.14156
   D13       -1.04783   0.00091   0.00000   0.00226   0.00229  -1.04555
   D14        1.04719  -0.00090   0.00000  -0.00224  -0.00226   1.04493
   D15        0.00000   0.00000   0.00000   0.00000   0.00000   0.00000
   D16       -3.14159   0.00000   0.00000   0.00000   0.00000   3.14159
   D17        0.00000  -0.00001   0.00000  -0.00003  -0.00003  -0.00003
   D18        2.09376   0.00043   0.00000   0.00106   0.00108   2.09485
   D19       -2.09440  -0.00042   0.00000  -0.00103  -0.00105  -2.09546
   D20        3.14159  -0.00001   0.00000  -0.00003  -0.00003   3.14156
   D21       -1.04783   0.00043   0.00000   0.00106   0.00109  -1.04675
   D22        1.04719  -0.00041   0.00000  -0.00103  -0.00105   1.04614
   D23        0.00000   0.00000   0.00000   0.00000   0.00000   0.00000
   D24        0.00000   0.00000   0.00000   0.00000   0.00000   0.00000
   D25       -3.14159   0.00000   0.00000   0.00000   0.00000  -3.14159
   D26       -3.14159  -0.00001   0.00000  -0.00004  -0.00003   3.14156
   D27       -1.04783  -0.00061   0.00000  -0.00151  -0.00152  -1.04935
   D28        1.04719   0.00062   0.00000   0.00155   0.00156   1.04875
   D29        0.00000  -0.00001   0.00000  -0.00003  -0.00003  -0.00003
   D30        2.09376  -0.00061   0.00000  -0.00151  -0.00152   2.09224
   D31       -2.09440   0.00062   0.00000   0.00155   0.00156  -2.09284
         Item               Value     Threshold  Converged?
 Maximum Force            0.352385     0.000450     NO 
 RMS     Force            0.055177     0.000300     NO 
 Maximum Displacement     0.221866     0.001800     NO 
 RMS     Displacement     0.058779     0.001200     NO 
 Predicted change in Energy=-9.924833D-02
 Lowest energy point so far.  Saving SCF results.
 GradGradGradGradGradGradGradGradGradGradGradGradGradGradGradGradGradGrad

 Leave Link  103 at Wed Jun  9 01:06:17 2021, MaxMem=  3355443200 cpu:         0.3
 (Enter /usr/local/gqt/g09/l202.exe)
                          Input orientation:                          
 ---------------------------------------------------------------------
 Center     Atomic      Atomic             Coordinates (Angstroms)
 Number     Number       Type             X           Y           Z
 ---------------------------------------------------------------------
      1          6           0       -1.128902   -0.085668   -0.126101
      2          6           0       -2.484888   -0.153699   -0.280400
      3         16           0       -2.900746   -1.641783   -0.209980
      4          6           0       -1.602151   -2.313978   -0.003045
      5          7           0       -0.598551   -1.276064    0.031904
      6          6           0       -3.433751    0.997306   -0.484558
      7          6           0       -0.306588    1.165989   -0.129655
      8          6           0        0.825901   -1.530164    0.220111
      9          1           0       -2.886703    1.949866   -0.496517
     10          1           0       -3.965183    0.883358   -1.443942
     11          1           0       -4.174893    1.025711    0.331349
     12          1           0       -0.948439    2.044413   -0.275793
     13          1           0        0.224436    1.267102    0.831332
     14          1           0        0.434305    1.124508   -0.945158
     15          1           0        0.984962   -2.612557    0.325743
     16          1           0        1.387738   -1.159180   -0.651911
     17          1           0        1.178332   -1.015879    1.128406
 ---------------------------------------------------------------------
                    Distance matrix (angstroms):
                    1          2          3          4          5
     1  C    0.000000
     2  C    1.366432   0.000000
     3  S    2.359653   1.546703   0.000000
     4  C    2.281332   2.350097   1.476827   0.000000
     5  N    1.312738   2.217093   2.343578   1.444195   0.000000
     6  C    2.571702   1.505601   2.706341   3.814606   3.670600
     7  C    1.497617   2.551332   3.823570   3.715466   2.464745
     8  C    2.455135   3.620289   3.753043   2.561171   1.459127
     9  H    2.714861   2.152475   3.603088   4.480397   3.990175
    10  H    3.274172   2.149556   3.005333   4.228837   4.263266
    11  H    3.274521   2.149735   3.005331   4.228989   4.263573
    12  H    2.142946   2.681864   4.171795   4.415575   3.353009
    13  H    2.139670   3.255006   4.394622   4.105696   2.789998
    14  H    2.139858   3.255366   4.394931   4.105839   2.790015
    15  H    3.325320   4.295724   4.040807   2.624957   2.092861
    16  H    2.786105   4.018239   4.338121   3.270171   2.103951
    17  H    2.786111   4.018367   4.338423   3.270525   2.104122
                    6          7          8          9         10
     6  C    0.000000
     7  C    3.151755   0.000000
     8  C    5.002929   2.945184   0.000000
     9  H    1.098533   2.721405   5.138832   0.000000
    10  H    1.102643   3.897762   5.616818   1.788344   0.000000
    11  H    1.102635   3.898203   5.617189   1.788535   1.793294
    12  H    2.704957   1.097706   4.021419   1.953081   3.437058
    13  H    3.897010   1.102591   2.925757   3.450875   4.782995
    14  H    3.897460   1.102582   2.925489   3.451318   4.434234
    15  H    5.763048   4.019067   1.099106   6.040001   6.313251
    16  H    5.284429   2.924022   1.101687   5.287831   5.783860
    17  H    5.284494   2.923740   1.101679   5.287772   6.056387
                   11         12         13         14         15
    11  H    0.000000
    12  H    3.437497   0.000000
    13  H    4.434225   1.790412   0.000000
    14  H    4.783716   1.790603   1.794518   0.000000
    15  H    6.313567   5.078116   3.985697   3.985482   0.000000
    16  H    6.056683   3.982737   3.072479   2.492039   1.797315
    17  H    5.784497   3.982502   2.492022   3.071563   1.797510
                   16         17
    16  H    0.000000
    17  H    1.798309   0.000000
 Stoichiometry    C6H9NS
 Framework group  C1[X(C6H9NS)]
 Deg. of freedom    45
 Full point group                 C1      NOp   1
 RotChk:  IX=0 Diff= 1.20D-02
 Largest Abelian subgroup         C1      NOp   1
 Largest concise Abelian subgroup C1      NOp   1
                         Standard orientation:                         
 ---------------------------------------------------------------------
 Center     Atomic      Atomic             Coordinates (Angstroms)
 Number     Number       Type             X           Y           Z
 ---------------------------------------------------------------------
      1          6           0       -0.282358    0.649870   -0.000003
      2          6           0        1.015278    0.221760   -0.000003
      3         16           0        1.009201   -1.324931   -0.000013
      4          6           0       -0.436560   -1.626244   -0.000016
      5          7           0       -1.125021   -0.356708   -0.000008
      6          6           0        2.253379    1.078463    0.000008
      7          6           0       -0.735970    2.077138   -0.000001
      8          6           0       -2.577828   -0.221050   -0.000004
      9          1           0        1.984623    2.143613   -0.000016
     10          1           0        2.859074    0.867242    0.896859
     11          1           0        2.859577    0.866998   -0.896435
     12          1           0        0.129030    2.752958    0.000032
     13          1           0       -1.344886    2.275841   -0.897466
     14          1           0       -1.345445    2.275949    0.897051
     15          1           0       -3.030312   -1.222695   -0.000044
     16          1           0       -2.899583    0.327898    0.899354
     17          1           0       -2.899793    0.328423   -0.898955
 ---------------------------------------------------------------------
 Rotational constants (GHZ):      2.6423027      1.8824582      1.1230984
 Leave Link  202 at Wed Jun  9 01:06:17 2021, MaxMem=  3355443200 cpu:         0.0
 (Enter /usr/local/gqt/g09/l301.exe)
 Standard basis: 6-311+G(d,p) (5D, 7F)
 Ernie: Thresh=  0.10000D-02 Tol=  0.10000D-05 Strict=F.
 There are   246 symmetry adapted cartesian basis functions of A   symmetry.
 There are   238 symmetry adapted basis functions of A   symmetry.
   238 basis functions,   374 primitive gaussians,   246 cartesian basis functions
    34 alpha electrons       34 beta electrons
       nuclear repulsion energy       456.9328196487 Hartrees.
 IExCor= 5547 DFT=T Ex+Corr=N12SX ExCW=0 ScaHFX=  0.250000
 ScaDFX=  1.000000  1.000000  1.000000  1.000000 ScalE2=  1.000000  1.000000
 IRadAn=      0 IRanWt=     -1 IRanGd=            0 ICorTp=0 IEmpDi=  4
  HFx wShort=  0.110000 wLong=  0.000000 cFull=  0.000000 cShort=  1.000000 cLong=  0.000000
  DFx wShort=  0.110000 wLong=  0.000000 cFull=  0.000000 cShort=  1.000000 cLong=  0.000000
 NAtoms=   17 NActive=   17 NUniq=   17 SFac= 1.00D+00 NAtFMM=   60 NAOKFM=F Big=F
 Integral buffers will be    131072 words long.
 Raffenetti 2 integral format.
 Two-electron integral symmetry is turned on.
 ------------------------------------------------------------------------------
 Polarizable Continuum Model (PCM)
 =================================
 Model                : PCM (using non-symmetric T matrix).
 Atomic radii         : UFF (Universal Force Field).
 Polarization charges : Total charges.
 Charge compensation  : None.
 Solution method      : On-the-fly selection.
 Cavity type          : Scaled VdW (van der Waals Surface) (Alpha=1.100).
 Cavity algorithm     : GePol (No added spheres)
                        Default sphere list used, NSphG=   17.
                        Lebedev-Laikov grids with approx.  5.0 points / Ang**2.
                        Smoothing algorithm: Karplus/York (Gamma=1.0000).
                        Polarization charges: spherical gaussians, with
                                              point-specific exponents (IZeta= 3).
                        Self-potential: point-specific (ISelfS= 7).
                        Self-field    : sphere-specific E.n sum rule (ISelfD= 2).
 1st derivatives      : Analytical E(r).r(x)/FMM algorithm (CHGder, D1EAlg=3).
                        Cavity 1st derivative terms included.
 Solvent              : Water, Eps=  78.355300 Eps(inf)=   1.777849
 ------------------------------------------------------------------------------
 Spheres list:
 ISph  on   Nord     Re0    Alpha      Xe            Ye            Ze
    1   C      1    1.9255  1.100     -0.282358      0.649870     -0.000003
    2   C      2    1.9255  1.100      1.015278      0.221760     -0.000003
    3   S      3    2.0175  1.100      1.009201     -1.324931     -0.000013
    4   C      4    1.9255  1.100     -0.436560     -1.626244     -0.000016
    5   N      5    1.8300  1.100     -1.125021     -0.356708     -0.000008
    6   C      6    1.9255  1.100      2.253379      1.078463      0.000008
    7   C      7    1.9255  1.100     -0.735970      2.077138     -0.000001
    8   C      8    1.9255  1.100     -2.577828     -0.221050     -0.000004
    9   H      9    1.4430  1.100      1.984623      2.143613     -0.000016
   10   H     10    1.4430  1.100      2.859074      0.867242      0.896859
   11   H     11    1.4430  1.100      2.859577      0.866998     -0.896435
   12   H     12    1.4430  1.100      0.129030      2.752958      0.000032
   13   H     13    1.4430  1.100     -1.344886      2.275841     -0.897466
   14   H     14    1.4430  1.100     -1.345445      2.275949      0.897051
   15   H     15    1.4430  1.100     -3.030312     -1.222695     -0.000044
   16   H     16    1.4430  1.100     -2.899583      0.327898      0.899354
   17   H     17    1.4430  1.100     -2.899793      0.328423     -0.898955
 ------------------------------------------------------------------------------
 GePol: Number of generator spheres                  =      17
 GePol: Total number of spheres                      =      17
 GePol: Number of exposed spheres                    =      17 (100.00%)
 GePol: Number of points                             =    1428
 GePol: Average weight of points                     =       0.13
 GePol: Minimum weight of points                     =   0.33D-09
 GePol: Maximum weight of points                     =    0.20577
 GePol: Number of points with low weight             =      72
 GePol: Fraction of low-weight points (<1% of avg)   =       5.04%
 GePol: Cavity surface area                          =    187.301 Ang**2
 GePol: Cavity volume                                =    186.925 Ang**3
 Leave Link  301 at Wed Jun  9 01:06:17 2021, MaxMem=  3355443200 cpu:         0.8
 (Enter /usr/local/gqt/g09/l302.exe)
 NPDir=0 NMtPBC=     1 NCelOv=     1 NCel=       1 NClECP=     1 NCelD=      1
         NCelK=      1 NCelE2=     1 NClLst=     1 CellRange=     0.0.
 One-electron integrals computed using PRISM.
 NBasis=   238 RedAO= T EigKep=  5.26D-06  NBF=   238
 NBsUse=   238 1.00D-06 EigRej= -1.00D+00 NBFU=   238
 Precomputing XC quadrature grid using
 IXCGrd= 4 IRadAn=           0 IRanWt=          -1 IRanGd=           0 AccXCQ= 0.00D+00.
 Generated NRdTot=       0 NPtTot=           0 NUsed=           0 NTot=          32
 NSgBfM=   246   246   246   246   246 MxSgAt=    17 MxSgA2=    17.
 Leave Link  302 at Wed Jun  9 01:06:17 2021, MaxMem=  3355443200 cpu:         3.3
 (Enter /usr/local/gqt/g09/l303.exe)
 DipDrv:  MaxL=1.
 Leave Link  303 at Wed Jun  9 01:06:17 2021, MaxMem=  3355443200 cpu:         0.5
 (Enter /usr/local/gqt/g09/l401.exe)
 Initial guess from the checkpoint file:  "NHC22.chk"
 B after Tr=     0.000000    0.000000    0.000000
         Rot=    0.999977    0.000000   -0.000001    0.006760 Ang=   0.77 deg.
 Guess basis will be translated and rotated to current coordinates.
 JPrj=2 DoOrth=T DoCkMO=T.
 Generating alternative initial guess.
 ExpMin= 4.05D-02 ExpMax= 9.34D+04 ExpMxC= 3.17D+03 IAcc=2 IRadAn=         4 AccDes= 0.00D+00
 Harris functional with IExCor= 5547 and IRadAn=       4 diagonalized for initial guess.
 HarFok:  IExCor= 5547 AccDes= 0.00D+00 IRadAn=         4 IDoV= 1 UseB2=F ITyADJ=14
 ICtDFT=  3500011 ScaDFX=  1.000000  1.000000  1.000000  1.000000
 FoFCou: FMM=F IPFlag=           0 FMFlag=      100000 FMFlg1=           0
         NFxFlg=           0 DoJE=T BraDBF=F KetDBF=T FulRan=T
         wScrn=  0.000000 ICntrl=     500 IOpCl=  0 I1Cent=   200000004 NGrid=           0
         NMat0=    1 NMatS0=      1 NMatT0=    0 NMatD0=    1 NMtDS0=    0 NMtDT0=    0
 Petite list used in FoFCou.
 Harris En= -671.495221059552    
 Leave Link  401 at Wed Jun  9 01:06:18 2021, MaxMem=  3355443200 cpu:        10.9
 (Enter /usr/local/gqt/g09/l502.exe)
 Closed shell SCF:
 Using DIIS extrapolation, IDIIS=  1040.
 Integral symmetry usage will be decided dynamically.
 Keep R1 ints in memory in canonical form, NReq=816659283.
 IVT=      205873 IEndB=      205873 NGot=  3355443200 MDV=  2546318406
 LenX=  2546318406 LenY=  2546257449
 Requested convergence on RMS density matrix=1.00D-08 within 128 cycles.
 Requested convergence on MAX density matrix=1.00D-06.
 Requested convergence on             energy=1.00D-06.
 No special actions if energy rises.
 FoFCou: FMM=F IPFlag=           0 FMFlag=           0 FMFlg1=           0
         NFxFlg=           0 DoJE=F BraDBF=F KetDBF=F FulRan=T
         wScrn=  0.000000 ICntrl=     600 IOpCl=  0 I1Cent=           0 NGrid=           0
         NMat0=    1 NMatS0=  28441 NMatT0=    0 NMatD0=    1 NMtDS0=    0 NMtDT0=    0
 Symmetry not used in FoFCou.

 Cycle   1  Pass 1  IDiag  1:
 Inv3:  Mode=1 IEnd=     6117552.
 Iteration    1 A*A^-1 deviation from unit magnitude is 4.33D-15 for   1424.
 Iteration    1 A*A^-1 deviation from orthogonality  is 2.21D-15 for    298    180.
 Iteration    1 A^-1*A deviation from unit magnitude is 3.89D-15 for   1424.
 Iteration    1 A^-1*A deviation from orthogonality  is 3.17D-14 for    939    927.
 E= -686.771916163498    
 DIIS: error= 5.55D-03 at cycle   1 NSaved=   1.
 NSaved= 1 IEnMin= 1 EnMin= -686.771916163498     IErMin= 1 ErrMin= 5.55D-03
 ErrMax= 5.55D-03  0.00D+00 EMaxC= 1.00D-01 BMatC= 1.46D-02 BMatP= 1.46D-02
 IDIUse=3 WtCom= 9.44D-01 WtEn= 5.55D-02
 Coeff-Com:  0.100D+01
 Coeff-En:   0.100D+01
 Coeff:      0.100D+01
 Gap=     0.371 Goal=   None    Shift=    0.000
 GapD=    0.371 DampG=1.000 DampE=1.000 DampFc=1.0000 IDamp=-1.
 RMSDP=5.09D-03 MaxDP=2.31D-01              OVMax= 4.34D-02

 Cycle   2  Pass 1  IDiag  1:
 E= -686.782117936111     Delta-E=       -0.010201772613 Rises=F Damp=F
 DIIS: error= 3.61D-03 at cycle   2 NSaved=   2.
 NSaved= 2 IEnMin= 2 EnMin= -686.782117936111     IErMin= 2 ErrMin= 3.61D-03
 ErrMax= 3.61D-03  0.00D+00 EMaxC= 1.00D-01 BMatC= 3.08D-03 BMatP= 1.46D-02
 IDIUse=3 WtCom= 9.64D-01 WtEn= 3.61D-02
 Coeff-Com:  0.226D+00 0.774D+00
 Coeff-En:   0.000D+00 0.100D+01
 Coeff:      0.218D+00 0.782D+00
 Gap=     0.213 Goal=   None    Shift=    0.000
 RMSDP=1.77D-03 MaxDP=1.73D-01 DE=-1.02D-02 OVMax= 3.45D-02

 Cycle   3  Pass 1  IDiag  1:
 E= -686.782301442602     Delta-E=       -0.000183506490 Rises=F Damp=F
 DIIS: error= 4.70D-03 at cycle   3 NSaved=   3.
 NSaved= 3 IEnMin= 3 EnMin= -686.782301442602     IErMin= 2 ErrMin= 3.61D-03
 ErrMax= 4.70D-03  0.00D+00 EMaxC= 1.00D-01 BMatC= 2.78D-03 BMatP= 3.08D-03
 IDIUse=3 WtCom= 9.53D-01 WtEn= 4.70D-02
 Coeff-Com:  0.286D-02 0.486D+00 0.511D+00
 Coeff-En:   0.000D+00 0.486D+00 0.514D+00
 Coeff:      0.272D-02 0.486D+00 0.511D+00
 Gap=     0.207 Goal=   None    Shift=    0.000
 RMSDP=7.73D-04 MaxDP=6.37D-02 DE=-1.84D-04 OVMax= 2.39D-02

 Cycle   4  Pass 1  IDiag  1:
 E= -686.784926752928     Delta-E=       -0.002625310326 Rises=F Damp=F
 DIIS: error= 1.13D-03 at cycle   4 NSaved=   4.
 NSaved= 4 IEnMin= 4 EnMin= -686.784926752928     IErMin= 4 ErrMin= 1.13D-03
 ErrMax= 1.13D-03  0.00D+00 EMaxC= 1.00D-01 BMatC= 1.34D-04 BMatP= 2.78D-03
 IDIUse=3 WtCom= 9.89D-01 WtEn= 1.13D-02
 Coeff-Com: -0.592D-02 0.254D+00 0.303D+00 0.449D+00
 Coeff-En:   0.000D+00 0.000D+00 0.000D+00 0.100D+01
 Coeff:     -0.585D-02 0.251D+00 0.299D+00 0.456D+00
 Gap=     0.208 Goal=   None    Shift=    0.000
 RMSDP=1.47D-04 MaxDP=5.59D-03 DE=-2.63D-03 OVMax= 4.63D-03

 Cycle   5  Pass 1  IDiag  1:
 E= -686.785040989432     Delta-E=       -0.000114236504 Rises=F Damp=F
 DIIS: error= 2.30D-04 at cycle   5 NSaved=   5.
 NSaved= 5 IEnMin= 5 EnMin= -686.785040989432     IErMin= 5 ErrMin= 2.30D-04
 ErrMax= 2.30D-04  0.00D+00 EMaxC= 1.00D-01 BMatC= 8.83D-06 BMatP= 1.34D-04
 IDIUse=3 WtCom= 9.98D-01 WtEn= 2.30D-03
 Coeff-Com: -0.257D-02 0.635D-01 0.891D-01 0.243D+00 0.607D+00
 Coeff-En:   0.000D+00 0.000D+00 0.000D+00 0.159D-01 0.984D+00
 Coeff:     -0.256D-02 0.634D-01 0.888D-01 0.243D+00 0.608D+00
 Gap=     0.208 Goal=   None    Shift=    0.000
 RMSDP=3.48D-05 MaxDP=1.04D-03 DE=-1.14D-04 OVMax= 9.84D-04

 Cycle   6  Pass 1  IDiag  1:
 E= -686.785049143071     Delta-E=       -0.000008153639 Rises=F Damp=F
 DIIS: error= 4.71D-05 at cycle   6 NSaved=   6.
 NSaved= 6 IEnMin= 6 EnMin= -686.785049143071     IErMin= 6 ErrMin= 4.71D-05
 ErrMax= 4.71D-05  0.00D+00 EMaxC= 1.00D-01 BMatC= 3.85D-07 BMatP= 8.83D-06
 IDIUse=1 WtCom= 1.00D+00 WtEn= 0.00D+00
 Coeff-Com: -0.727D-03 0.123D-01 0.224D-01 0.779D-01 0.269D+00 0.619D+00
 Coeff:     -0.727D-03 0.123D-01 0.224D-01 0.779D-01 0.269D+00 0.619D+00
 Gap=     0.208 Goal=   None    Shift=    0.000
 RMSDP=9.87D-06 MaxDP=7.11D-04 DE=-8.15D-06 OVMax= 2.77D-04

 Cycle   7  Pass 1  IDiag  1:
 E= -686.785049385547     Delta-E=       -0.000000242477 Rises=F Damp=F
 DIIS: error= 2.94D-05 at cycle   7 NSaved=   7.
 NSaved= 7 IEnMin= 7 EnMin= -686.785049385547     IErMin= 7 ErrMin= 2.94D-05
 ErrMax= 2.94D-05  0.00D+00 EMaxC= 1.00D-01 BMatC= 1.18D-07 BMatP= 3.85D-07
 IDIUse=1 WtCom= 1.00D+00 WtEn= 0.00D+00
 Coeff-Com: -0.485D-04-0.369D-02-0.104D-02 0.744D-02 0.760D-01 0.392D+00
 Coeff-Com:  0.529D+00
 Coeff:     -0.485D-04-0.369D-02-0.104D-02 0.744D-02 0.760D-01 0.392D+00
 Coeff:      0.529D+00
 Gap=     0.208 Goal=   None    Shift=    0.000
 RMSDP=7.29D-06 MaxDP=6.79D-04 DE=-2.42D-07 OVMax= 1.42D-04

 Cycle   8  Pass 1  IDiag  1:
 E= -686.785049495839     Delta-E=       -0.000000110292 Rises=F Damp=F
 DIIS: error= 7.27D-06 at cycle   8 NSaved=   8.
 NSaved= 8 IEnMin= 8 EnMin= -686.785049495839     IErMin= 8 ErrMin= 7.27D-06
 ErrMax= 7.27D-06  0.00D+00 EMaxC= 1.00D-01 BMatC= 7.87D-09 BMatP= 1.18D-07
 IDIUse=1 WtCom= 1.00D+00 WtEn= 0.00D+00
[...]
 ! D31   D(4,5,8,17)          -119.5306         -DE/DX =    0.0                 !
 --------------------------------------------------------------------------------
 GradGradGradGradGradGradGradGradGradGradGradGradGradGradGradGradGradGrad

 Leave Link  103 at Wed Jun  9 01:17:45 2021, MaxMem=  3355443200 cpu:         0.3
 (Enter /usr/local/gqt/g09/l9999.exe)
 1\1\GINC-RENIO\Freq\RN12SX\6-311+G(d,p)\C6H9N1S1\USER\09-Jun-2021\0\\#
 P Geom=AllCheck Guess=TCheck SCRF=Check GenChk RN12SX/6-311+G(d,p) Fre
 q\\TITLE\\0,1\C,-1.1593538034,-0.0503586724,-0.1325457701\C,-2.5009945
 194,-0.0881266472,-0.2876116803\S,-3.0055462251,-1.7561293805,-0.21323
 0202\C,-1.4324948251,-2.3921561914,0.0231654431\N,-0.6153331904,-1.333
 8579603,0.0345450677\C,-3.4643161448,1.0247758298,-0.490431094\C,-0.27
 4395031,1.1432681473,-0.1240422462\C,0.8182700154,-1.5127773236,0.2178
 458063\H,-2.9556288763,1.9844766537,-0.5073983477\H,-4.0006363176,0.91
 56597833,-1.431831975\H,-4.2056254049,1.0550474514,0.306640796\H,-0.85
 50425273,2.0483572572,-0.2650652714\H,0.2621140852,1.2352358377,0.8195
 095693\H,0.4671270727,1.0956327047,-0.9205759155\H,1.0065531631,-2.572
 7553684,0.3250584368\H,1.3633845002,-1.133812613,-0.6426220976\H,1.156
 7960286,-0.9931985082,1.1103744805\\Version=ES64L-G09RevD.01\State=1-A
 \HF=-686.8555962\RMSD=1.985e-09\RMSF=4.151e-05\ZeroPoint=0.1400694\The
 rmal=0.1488971\Dipole=0.8578563,2.3573173,-0.0880585\DipoleDeriv=0.139
 0092,0.1599029,-0.0026249,-0.0709741,0.1308729,-0.0146647,0.0158917,0.
 0125364,0.0532398,-0.0295562,-0.1636608,0.0363475,0.1569532,0.2048988,
 -0.0161282,0.0106408,-0.0539077,-0.2209565,-0.3876239,0.0908902,-0.065
 5906,0.2710218,0.0775123,0.0343104,-0.0800434,0.0130839,0.0966141,0.48
 98539,0.124726,0.1068712,-0.0053845,-0.1940743,-0.0253439,0.1173105,-0
 .0100104,-0.4873919,-0.762274,-0.0464175,-0.0738513,-0.2037259,-0.4326
 171,0.00237,-0.0612226,0.0209052,-0.1128338,0.0510053,-0.0514128,-0.00
 6513,0.0057953,-0.0173104,0.0134099,-0.011127,0.0066772,0.1394632,-0.0
 486783,-0.0774412,-0.0152353,-0.0036971,-0.0163196,0.0115721,-0.021144
 5,0.0028879,0.1306222,0.6024695,-0.0205164,0.0451783,-0.1121284,0.1243
 933,-0.0044923,0.0525244,0.0062992,0.2387776,0.0224266,-0.0980289,-0.0
 029761,-0.0093898,-0.1422127,0.0194627,-0.01008,0.009016,0.1123849,0.0
 086076,0.0584975,-0.0890124,0.0444459,0.0507239,-0.0441842,-0.1380311,
 0.0108844,-0.0546254,-0.0440761,0.0748902,0.0813123,0.0563675,0.055827
 5,0.0426497,0.1329447,-0.0085826,-0.0070268,0.0379444,0.1379589,-0.020
 9851,0.0387043,-0.0716825,0.0201087,-0.0130238,0.0317992,0.1180365,0.0
 105007,-0.0828292,-0.0771416,-0.0748977,0.0503477,0.0312467,-0.1107889
 ,-0.0205786,-0.0525079,-0.0378665,-0.0700235,0.0925419,-0.0451479,0.04
 37923,-0.057276,0.1235566,-0.0093166,0.0024104,0.0769499,-0.0305389,-0
 .0035909,0.0738973,-0.0421641,0.0223734,-0.0119688,0.0100674,0.1259832
 ,-0.0758258,-0.0119763,0.0072015,-0.0654315,0.1035069,0.0803735,0.0904
 952,0.0715708,-0.0441145,-0.0528663,0.0059798,-0.0119316,-0.0564081,0.
 0745051,-0.1157878,-0.0859339,-0.0933319,-0.0380751\Polar=150.6808233,
 -0.2578916,140.3918409,7.4444039,-4.25972,88.9024248\PG=C01 [X(C6H9N1S
 1)]\NImag=0\\0.78154088,0.08791305,0.58377287,0.06535968,-0.02308023,0
 .17657655,-0.42955233,-0.02754072,-0.04098738,0.73379498,0.00152795,-0
 .10136751,0.00326070,-0.09749071,0.48089066,-0.04332026,-0.00016427,-0
 .06806389,0.07883248,-0.03954800,0.14365882,-0.03852686,-0.00712772,-0
 .00494421,-0.05657811,-0.02757534,-0.00020447,0.30264087,-0.05233344,-
 0.02542585,-0.00346192,-0.05056697,-0.14152205,0.00250294,0.03952666,0
 .25499485,-0.00131723,0.00186503,0.00798053,0.00164028,0.00521229,-0.0
 3629103,0.02731635,-0.01227910,0.04811613,0.01759078,-0.03971396,0.003
 40359,-0.01720146,0.03122450,-0.00587012,-0.12758055,0.07090528,-0.016
 20390,0.35927913,0.00838937,-0.07095670,0.00794534,0.00529829,-0.03322
 102,0.00420124,0.01520707,-0.04795008,0.00256250,0.09622523,0.40555714
 ,-0.00045591,0.00227700,0.01551086,-0.00379027,0.00725607,0.01032690,-
 0.01173510,0.00912577,-0.04046398,0.02740078,-0.01628832,0.06576906,-0
 .14162122,0.05464737,-0.01332397,-0.04353002,0.02357404,-0.00775459,-0
 .08194080,-0.00082358,-0.01049356,-0.19171870,-0.12022420,-0.00697831,
 0.73044364,0.01446441,-0.18656050,0.01139712,0.06464994,-0.00527792,0.
 00854037,-0.02699391,-0.02285298,-0.00073193,-0.13450746,-0.24917121,0
 .00007939,0.04093023,0.60267429,-0.01010001,0.01613218,-0.06824698,-0.
 01105000,0.00370108,0.00462465,-0.00839370,0.00235190,0.00649323,-0.00
 583283,0.00176216,-0.05146806,0.06477210,-0.03126297,0.16306803,-0.013
 60839,0.02179534,-0.00349741,-0.15107167,0.07441610,-0.01621200,0.0098
 2342,-0.00422055,0.00166429,-0.00190961,-0.00631669,-0.00004429,-0.003
 37693,0.00215673,-0.00145534,0.54459792,0.00343940,0.00660983,-0.00002
 664,0.08410787,-0.16834689,0.01827150,0.01268450,-0.02106773,0.0030705
 9,-0.00082167,-0.00462525,0.00049679,-0.00345704,0.00171665,0.00005662
 ,0.03890580,0.54272285,-0.00202402,0.00213618,0.00081794,-0.01698926,0
 .01712854,-0.06754276,0.00030839,0.00107823,-0.00147748,-0.00048621,-0
 .00015127,0.00272515,-0.00100441,0.00071931,0.00732694,-0.00382396,0.0
 0521396,0.54967520,-0.14468757,-0.07556740,-0.00294839,-0.01562144,-0.
 02440295,-0.00071522,-0.00237684,-0.00185362,-0.00102544,-0.00357038,0
 .00374440,-0.00093449,0.01509817,0.01382663,0.00070053,0.00115978,-0.0
 0047631,0.00062104,0.55625198,-0.07008952,-0.17800289,0.00055072,-0.00
 673073,0.00312059,-0.00047657,0.00144627,0.00269593,0.00056294,0.00319
 597,-0.00157828,0.00064847,-0.01672223,-0.03291885,0.00064998,0.000526
 85,-0.00140143,-0.00012907,-0.04497844,0.54815451,-0.00338806,-0.00009
 483,-0.06860172,-0.00213321,-0.00255916,0.00702040,-0.00129037,0.00017
 421,0.00742200,-0.00089023,0.00071313,0.00164767,0.00315159,0.00424933
 ,-0.00023129,0.00054034,-0.00024718,-0.00370144,0.00439901,-0.00518717
 ,0.55048394,-0.01212357,0.01280496,-0.00228956,0.00193651,-0.00141686,
 0.00023457,0.00056026,-0.00162686,-0.00090967,-0.03548723,-0.01033424,
 -0.00270976,-0.21364149,0.01864473,-0.01848661,0.00053496,0.00027800,-
 0.00009944,-0.00019199,-0.00056025,0.00001515,0.48884915,0.03231956,0.
 00016174,0.00368222,0.00081281,-0.00769575,0.00078638,-0.00816883,0.00
 073701,-0.00026860,-0.02365859,0.00680092,-0.00377142,0.01568281,-0.10
 756642,0.00490520,0.00128317,0.00084969,0.00017851,0.00165037,-0.00218
 807,0.00037491,0.01907616,0.63860312,-0.00385513,0.00138250,-0.0019789
 4,0.00005566,0.00052343,0.00087504,-0.00038460,0.00050239,0.00930172,-
 0.00164033,-0.00220109,-0.00547325,-0.01824916,0.00525405,-0.07203868,
 -0.00018022,0.00006010,0.00116415,-0.00016219,0.00011437,0.00003273,-0
 .01334148,-0.00172575,0.58763670,-0.00019442,-0.00108384,0.00003799,0.
 01190938,0.02023406,-0.00005349,-0.00173881,0.00263505,-0.00044442,-0.
 00038141,0.00122316,-0.00020841,0.00032833,-0.00002291,0.00006676,-0.1
 1015808,-0.11795180,0.00176257,-0.00118161,0.00167536,-0.00026082,0.00
 002203,-0.00018186,0.00002732,0.12048690,-0.00174073,0.00032259,-0.000
 21300,-0.01044515,-0.02268831,0.00047589,0.00263606,0.00012696,0.00031
 943,0.00050036,-0.00187904,0.00025419,-0.00004698,-0.00007219,-0.00001
 764,-0.11587321,-0.26076120,0.00364405,-0.00033899,0.00021433,-0.00006
 600,-0.00016466,0.00017894,-0.00004069,0.12524991,0.28318676,0.0000905
 4,-0.00013586,0.00024349,0.00240622,0.00409343,-0.00144137,-0.00044479
 ,0.00031976,0.00016125,-0.00015010,0.00033939,0.00050805,0.00006873,-0
 .00001495,-0.00021352,0.00159595,0.00339867,-0.04498374,-0.00009920,0.
 00017140,-0.00013479,0.00002596,-0.00004271,-0.00007972,-0.00093776,-0
 .00446733,0.04351870,0.00106033,0.00217216,-0.00092024,-0.01509410,-0.
 00033852,-0.01778191,0.00048664,-0.00089585,0.00005212,-0.00066840,0.0
 0000641,0.00016227,-0.00073680,0.00066977,0.00107094,-0.10701803,-0.01
 600346,-0.11476947,-0.00009937,0.00000234,-0.00056654,0.00019642,0.000
 26317,0.00008696,-0.00768971,-0.00080780,-0.01294215,0.11829311,-0.001
 41851,-0.00142836,0.00081489,0.01540100,0.00128303,0.02289245,-0.00048
 412,0.00074369,0.00036804,0.00167514,0.00048175,-0.00030655,0.00087067
 ,-0.00214328,-0.00077346,-0.01555576,-0.04951618,-0.02659587,-0.000020
 24,-0.00018189,0.00015626,-0.00026449,-0.00022502,-0.00031741,-0.01246
 854,-0.00209866,-0.02518422,0.01203029,0.05316775,0.00145086,0.0000824
 4,0.00000587,-0.00199883,0.00164706,0.00007730,-0.00022498,-0.00024093
 ,0.00026063,-0.00059584,0.00012515,0.00011852,0.00023701,0.00060116,-0
 .00010469,-0.11499156,-0.02719936,-0.25039144,-0.00009740,-0.00007329,
 -0.00004468,0.00011588,0.00005062,-0.00004719,0.00175607,0.00003319,0.
 00165939,0.12625233,0.02849058,0.26909487,0.00113964,0.00224242,0.0008
 2230,-0.01834832,0.00244704,0.01273786,0.00041186,-0.00091246,0.000125
 86,-0.00069386,0.00000119,-0.00035418,-0.00038281,0.00057115,-0.001230
 41,-0.16711407,0.00180769,0.13654039,-0.00024559,0.00006777,0.00051148
 ,0.00022768,0.00025353,-0.00005733,-0.01005020,0.00104973,0.01060740,0
 .01141904,-0.00015050,-0.01178149,0.18377484,-0.00140854,-0.00151989,-
 0.00090928,0.01998987,-0.00222714,-0.01801031,-0.00033314,0.00068742,-
 0.00052933,0.00162284,0.00053256,0.00063443,0.00057814,-0.00204082,0.0
 0123099,0.00241127,-0.04605817,-0.00329975,0.00002524,-0.00018988,-0.0
 0011986,-0.00034271,-0.00017972,0.00026403,-0.01828485,0.00168510,0.02
 174319,0.00278563,-0.00079425,-0.00337642,-0.00745219,0.04938613,-0.00
 096768,0.00067660,0.00001705,-0.00571457,-0.00068839,0.00684174,0.0003
 2332,-0.00003734,0.00039242,0.00014015,-0.00018472,0.00009319,-0.00041
 345,-0.00016822,-0.00056080,0.13667910,-0.00282100,-0.19375529,0.00004
 745,0.00011727,0.00010947,0.00000385,0.00002841,-0.00012380,-0.0016057
 1,0.00018045,0.00023660,0.01926095,0.00041603,-0.02063316,-0.14777853,
 0.00243322,0.20739609,0.01336653,-0.01737752,0.00325685,-0.00037161,0.
 00083188,-0.00010997,0.00017298,0.00017528,0.00002805,0.00056475,-0.00
 062850,0.00008016,-0.00313461,-0.00449915,-0.00013268,-0.00128856,-0.0
 0191419,0.00000796,-0.13033268,0.12982835,-0.02046674,-0.00083216,0.00
 054416,-0.00007724,-0.00184655,0.00010596,-0.00028390,0.00018397,0.000
 22058,-0.00004570,0.00017983,0.00023353,0.00004821,0.14242973,0.015514
 41,-0.02193397,0.00339164,0.00129551,0.00023007,0.00013382,0.00000475,
 0.00012224,-0.00002404,0.00076329,-0.00124753,0.00021514,-0.00419249,-
 0.00232030,-0.00022325,0.00037228,0.00024691,0.00001957,0.12568645,-0.
 24213718,0.03062187,-0.00070902,0.00017866,-0.00014178,-0.00056757,0.0
 0117943,-0.00012200,0.00016449,0.00027572,0.00000895,0.00016225,0.0002
 7045,-0.00001148,-0.13622626,0.26239407,0.00061801,-0.00048366,-0.0023
 3162,-0.00014714,0.00007918,-0.00002865,0.00004171,-0.00000396,-0.0001
 7908,-0.00003153,0.00005110,0.00030469,-0.00015730,-0.00025918,0.00105
 790,-0.00017538,-0.00024965,-0.00005438,-0.02013447,0.03110989,-0.0498
 9212,0.00002327,0.00000594,-0.00054455,-0.00022987,-0.00004278,0.00046
 724,0.00003636,0.00002898,0.00001237,-0.00002371,-0.00001661,0.0000218
 3,0.02254640,-0.03358495,0.04917725,-0.01446719,-0.00362154,-0.0165344
 8,0.00104521,-0.00184473,0.00004412,-0.00055291,-0.00069230,0.00095574
 ,-0.00031916,-0.00034114,-0.00005105,-0.00016247,0.00175609,0.00036339
 ,-0.00008600,-0.00018028,-0.00053055,-0.10703915,-0.00858785,-0.116027
 25,0.00033605,0.00045688,-0.00014191,0.00023460,-0.00013226,0.00003451
 ,-0.00021669,-0.00009020,0.00000441,0.00001024,0.00009491,0.00003027,-
 0.00838957,-0.00230309,-0.01451034,0.11820039,-0.01558030,-0.00361052,
 -0.02453290,0.00082054,-0.00192951,0.00050192,-0.00020787,-0.00107456,
 0.00132041,-0.00136023,-0.00061309,0.00020889,0.00078419,0.00207886,0.
 00001188,0.00007317,-0.00026443,-0.00024595,-0.00941632,-0.04812694,-0
 .01741780,-0.00045772,-0.00067394,-0.00075094,-0.00023122,0.00026630,-
 0.00009204,0.00004676,0.00033418,-0.00006693,-0.00010152,0.00010093,0.
 00001417,0.01190818,0.00312060,0.02401503,0.01362348,0.05203568,0.0003
 6914,-0.00142546,0.00380511,0.00136182,0.00022957,-0.00005975,0.000300
 67,-0.00033852,-0.00031952,-0.00020947,-0.00029662,-0.00002957,-0.0009
 2520,0.00033061,0.00029740,-0.00009463,0.00007145,0.00010594,-0.115230
 75,-0.01670806,-0.25143725,-0.00019039,0.00064435,-0.00011155,0.000018
 92,-0.00004724,0.00003306,0.00001569,-0.00000968,-0.00000225,-0.000031
 17,0.00002850,-0.00002828,-0.00026161,-0.00011188,-0.00248059,0.126589
 48,0.01851562,0.27038157,-0.01757783,-0.00167163,0.01235576,0.00128577
 ,-0.00173577,0.00055354,-0.00027032,-0.00090909,-0.00083309,-0.0003934
 4,-0.00040539,0.00002658,-0.00021618,0.00172711,-0.00077479,-0.0002190
 1,-0.00008574,0.00047817,-0.16714508,0.01156789,0.13626751,0.00023664,
 0.00060653,0.00014266,0.00022883,-0.00013485,0.00003595,0.00000811,0.0
 0009590,-0.00003789,-0.00020165,-0.00008697,-0.00003693,-0.01111380,-0
 .00008885,0.01217575,0.01113215,-0.00074463,-0.01194439,0.18382282,-0.
 02114884,0.00029537,0.02103516,0.00067897,-0.00201854,-0.00003273,0.00
 004235,-0.00122834,-0.00121725,-0.00124223,-0.00061536,-0.00041675,0.0
 0092294,0.00202890,-0.00008087,0.00001596,-0.00022810,0.00032152,0.010
 48310,-0.04753122,-0.01072453,-0.00058627,-0.00064238,0.00072088,-0.00
 023798,0.00027531,-0.00000283,-0.00008641,0.00009092,-0.00005545,0.000
 02959,0.00033671,0.00002039,0.01688770,-0.00051477,-0.02067571,0.00164
 027,-0.00091709,-0.00099276,-0.00830332,0.05146914,-0.00202568,0.00163
 156,0.00300953,-0.00117178,-0.00035902,-0.00021121,-0.00029317,0.00027
 250,-0.00044834,0.00033389,0.00030750,0.00004688,0.00065625,-0.0001902
 5,0.00040095,0.00001377,-0.00003758,0.00020279,0.13562441,-0.01120914,
 -0.19192596,0.00036027,-0.00042604,-0.00004416,0.00006780,-0.00002390,
 0.00002990,0.00005394,-0.00002517,-0.00001617,-0.00006852,-0.00006679,
 -0.00001984,-0.00457518,-0.00022322,0.00387884,0.01947691,-0.00214650,
 -0.02057006,-0.14806940,0.01237388,0.20532566,-0.00475006,-0.00339606,
 -0.00037654,-0.00077126,0.00176852,-0.00027569,0.00046252,-0.00023300,
 0.00010903,0.00229632,0.00230658,0.00006026,-0.01569909,0.04044210,-0.
 00492227,-0.00042934,-0.00033813,-0.00001532,-0.00009114,-0.00077252,0
 .00010098,-0.05312156,0.03610170,-0.00341198,0.00006412,-0.00003561,0.
 00000991,-0.00008983,0.00009158,-0.00002408,-0.00009275,0.00009238,-0.
 00001382,0.00025039,0.00009962,-0.00000691,0.00002406,0.00007268,0.000
 22027,0.00010349,0.00008081,-0.00025137,0.06631675,-0.00015189,0.00071
 489,-0.00001445,-0.00050818,0.00002106,-0.00003237,-0.00052947,0.00076
 882,-0.00014844,-0.00285372,-0.00040445,-0.00028669,0.00176027,-0.0040
 3005,0.00041373,0.00010648,0.00010270,-0.00000126,0.00021095,-0.000051
 60,-0.00000489,0.05091652,-0.32944459,0.02851638,0.00000514,0.00004895
 ,-0.00000297,0.00003940,-0.00002761,-0.00000477,0.00003774,-0.00002567
 ,0.00001924,0.00005979,0.00003859,0.00002331,-0.00001511,0.00015109,0.
 00012698,-0.00000156,0.00009949,-0.00012600,-0.05228031,0.35061444,-0.
 00063697,-0.00039672,0.00071493,-0.00009301,0.00023596,0.00033406,0.00
 013284,-0.00011353,-0.00027933,0.00047430,0.00032143,0.00024431,-0.001
 81944,0.00497237,-0.00207234,-0.00005098,-0.00005364,-0.00007094,0.000
 02208,-0.00012077,-0.00040991,-0.00460030,0.02677037,-0.05143108,0.000
 00664,-0.00000778,0.00000572,-0.00002184,0.00001337,0.00000356,-0.0000
 0749,0.00001369,0.00000453,-0.00000373,0.00002800,0.00023858,0.0000909
 2,0.00020673,0.00015560,-0.00010838,-0.00018568,0.00012780,0.00660495,
 -0.03060676,0.04908900,0.00112136,-0.00232955,0.00062002,-0.00094694,-
 0.00060090,-0.00007245,-0.00231380,0.00082061,-0.00192259,-0.00007432,
 0.00316560,0.00194634,-0.02810698,-0.01439897,0.02527278,0.00010424,-0
 .00001224,-0.00018470,0.00002789,0.00003041,0.00045526,-0.10862635,-0.
 04314305,0.10168738,-0.00002061,0.00009334,-0.00000016,-0.00003198,0.0
 0008244,-0.00000162,-0.00000550,-0.00000517,0.00001673,0.00013804,-0.0
 0000235,-0.00019816,0.00003954,0.00011557,-0.00009281,0.00029217,0.000
 68302,-0.00027815,0.00362650,0.00131360,-0.00552754,0.12899934,0.00024
 569,-0.00049770,-0.00045205,0.00012523,0.00037539,0.00007597,-0.000033
 07,0.00007945,-0.00027472,-0.00107220,-0.00057584,0.00024352,0.0035237
 9,0.00257393,-0.00505768,-0.00006096,0.00001866,0.00010216,0.00072777,
 0.00007944,-0.00030187,-0.04692159,-0.08417105,0.07994287,0.00000410,0
 .00000618,0.00001493,-0.00001601,-0.00001683,-0.00000580,-0.00003514,0
 .00005136,0.00000045,-0.00010519,0.00005239,0.00005385,-0.00014242,0.0
 0004992,-0.00003946,0.00032267,-0.00094552,0.00029590,-0.01515777,-0.0
 0734228,0.02503755,0.05030289,0.08432994,0.00048414,0.00080677,0.00031
 708,0.00017078,-0.00019146,-0.00002968,-0.00019930,-0.00023874,-0.0004
 7460,-0.00067508,-0.00015221,0.00026121,-0.00431311,-0.00396746,0.0097
 4017,0.00002625,-0.00001213,-0.00005101,-0.00039650,0.00058309,-0.0001
 7813,0.10794030,0.07919096,-0.22896918,0.00002235,-0.00002013,-0.00000
 003,0.00000348,0.00000591,0.00000507,-0.00000377,-0.00003603,0.0000085
 0,-0.00029918,0.00000316,0.00011489,0.00011720,0.00001198,-0.00028115,
 -0.00021123,-0.00005292,0.00047775,-0.00036134,-0.00047965,-0.00113580
 ,-0.11456799,-0.08617678,0.23983373,0.00128993,-0.00214537,-0.00003400
 ,-0.00088459,-0.00061832,-0.00003240,-0.00267954,0.00100484,0.00125816
 ,0.00026755,0.00268285,-0.00241461,-0.02160205,-0.01941648,-0.02986787
 ,0.00005937,0.00001761,0.00020882,0.00004503,0.00010033,-0.00041810,-0
 .06887536,-0.03389852,-0.06049841,-0.00001279,0.00008488,-0.00001709,-
 0.00000270,-0.00001523,-0.00001717,-0.00002838,0.00007974,-0.00001935,
 0.00002332,0.00002658,0.00017331,0.00021090,0.00065523,0.00010441,0.00
 002734,0.00014033,0.00014601,0.00190087,0.00189036,0.00553797,0.005777
 40,0.00829222,0.01226298,0.08448370,0.00005793,-0.00057340,0.00061268,
 0.00010242,0.00037384,-0.00011822,-0.00009419,0.00016523,0.00019219,-0
 .00088255,-0.00053452,-0.00036994,0.00219210,0.00388189,0.00620016,-0.
 00003598,0.00000208,-0.00011886,0.00069935,0.00004344,0.00043357,-0.03
 833570,-0.11472316,-0.11210335,0.00000377,0.00000854,-0.00001586,-0.00
 003237,0.00005504,-0.00001619,-0.00001829,-0.00001509,0.00000490,-0.00
 004461,0.00004461,-0.00005079,0.00037928,-0.00092750,0.00002260,-0.000
 15231,0.00004547,-0.00004775,-0.00884256,-0.01123379,-0.02611458,0.003
 88475,0.00593256,0.01072562,0.04111895,0.11745476,-0.00028142,-0.00120
 924,0.00022421,-0.00039180,-0.00002127,-0.00009056,-0.00030859,0.00038
 632,-0.00019457,0.00083294,0.00094530,-0.00012162,-0.00345318,0.000451
 24,0.00192709,0.00000608,0.00000749,0.00001038,0.00032952,-0.00060406,
 -0.00015891,-0.06609204,-0.11038335,-0.23816824,-0.00002593,0.00003929
 ,-0.00001021,0.00000711,0.00002584,0.00000203,-0.00000869,0.00001634,-
 0.00000026,0.00028829,0.00002045,0.00023741,0.00008864,0.00044644,0.00
 054130,-0.00001983,-0.00003435,-0.00026435,0.00255392,0.00260862,0.004
 48132,-0.00715235,-0.01345886,-0.01963882,0.07362733,0.12076381,0.2512
 2381\\0.00008164,-0.00009582,0.00001725,-0.00000206,0.00014414,-0.0000
 1199,-0.00010410,-0.00006781,-0.00000648,0.00007378,-0.00008076,0.0000
 1486,-0.00000801,0.00007511,-0.00000704,-0.00006180,0.00002478,-0.0000
 0895,0.00002126,0.00005871,-0.00000249,-0.00007497,-0.00000615,-0.0000
 0795,0.00002070,0.00000579,0.00000186,0.00002474,-0.00000534,-0.000001
 14,0.00002370,-0.00000481,0.00000746,-0.00001513,-0.00000910,-0.000000
 88,-0.00000342,-0.00001819,0.00000157,-0.00000338,-0.00001842,0.000000
 70,-0.00000125,0.00000722,-0.00000086,0.00001422,-0.00000480,0.0000009
 3,0.00001406,-0.00000456,0.00000314\\\@


 Some scientists claim that hydrogen, because it is so
 plentiful, is the basic building block of the universe. 
 I dispute that. I say that stupidity is far more
 abundant than hydrogen, and THAT is the basic building 
 block of the universe.
                   --Frank Zappa
 Job cpu time:       0 days  1 hours 20 minutes 15.4 seconds.
 File lengths (MBytes):  RWF=    135 Int=      0 D2E=      0 Chk=     10 Scr=      1
 Normal termination of Gaussian 09 at Wed Jun  9 01:17:45 2021.
