 Entering Gaussian System, Link 0=g09
 Input=NHC32.gjf
 Output=NHC32.log
 Initial command:
 /usr/local/gqt/g09/l1.exe "/usr/local/gqt/lixogaussian/Gau-14394.inp" -scrdir="/usr/local/gqt/lixogaussian/"
 Entering Link 1 = /usr/local/gqt/g09/l1.exe PID=     14396.
  
 Copyright (c) 1988,1990,1992,1993,1995,1998,2003,2009,2013,
            Gaussian, Inc.  All Rights Reserved.
  
 This is part of the Gaussian(R) 09 program.  It is based on
 the Gaussian(R) 03 system (copyright 2003, Gaussian, Inc.),
 the Gaussian(R) 98 system (copyright 1998, Gaussian, Inc.),
 the Gaussian(R) 94 system (copyright 1995, Gaussian, Inc.),
 the Gaussian 92(TM) system (copyright 1992, Gaussian, Inc.),
 the Gaussian 90(TM) system (copyright 1990, Gaussian, Inc.),
 the Gaussian 88(TM) system (copyright 1988, Gaussian, Inc.),
 the Gaussian 86(TM) system (copyright 1986, Carnegie Mellon
 University), and the Gaussian 82(TM) system (copyright 1983,
 Carnegie Mellon University). Gaussian is a federally registered
 trademark of Gaussian, Inc.
  
 This software contains proprietary and confidential information,
 including trade secrets, belonging to Gaussian, Inc.
  
 This software is provided under written license and may be
 used, copied, transmitted, or stored only in accord with that
 written license.
  
 The following legend is applicable only to US Government
 contracts under FAR:
  
                    RESTRICTED RIGHTS LEGEND
  
 Use, reproduction and disclosure by the US Government is
 subject to restrictions as set forth in subparagraphs (a)
 and (c) of the Commercial Computer Software - Restricted
 Rights clause in FAR 52.227-19.
  
 Gaussian, Inc.
 340 Quinnipiac St., Bldg. 40, Wallingford CT 06492
  
  
 ---------------------------------------------------------------
 Warning -- This program may not be used in any manner that
 competes with the business of Gaussian, Inc. or will provide
 assistance to any competitor of Gaussian, Inc.  The licensee
 of this program is prohibited from giving any competitor of
 Gaussian, Inc. access to this program.  By using this program,
 the user acknowledges that Gaussian, Inc. is engaged in the
 business of creating and licensing software in the field of
 computational chemistry and represents and warrants to the
 licensee that it is not a competitor of Gaussian, Inc. and that
 it will not use this program in any manner prohibited above.
 ---------------------------------------------------------------
  

 Cite this work as:
 Gaussian 09, Revision D.01,
 M. J. Frisch, G. W. Trucks, H. B. Schlegel, G. E. Scuseria, 
 M. A. Robb, J. R. Cheeseman, G. Scalmani, V. Barone, B. Mennucci, 
 G. A. Petersson, H. Nakatsuji, M. Caricato, X. Li, H. P. Hratchian, 
 A. F. Izmaylov, J. Bloino, G. Zheng, J. L. Sonnenberg, M. Hada, 
 M. Ehara, K. Toyota, R. Fukuda, J. Hasegawa, M. Ishida, T. Nakajima, 
 Y. Honda, O. Kitao, H. Nakai, T. Vreven, J. A. Montgomery, Jr., 
 J. E. Peralta, F. Ogliaro, M. Bearpark, J. J. Heyd, E. Brothers, 
 K. N. Kudin, V. N. Staroverov, T. Keith, R. Kobayashi, J. Normand, 
 K. Raghavachari, A. Rendell, J. C. Burant, S. S. Iyengar, J. Tomasi, 
 M. Cossi, N. Rega, J. M. Millam, M. Klene, J. E. Knox, J. B. Cross, 
 V. Bakken, C. Adamo, J. Jaramillo, R. Gomperts, R. E. Stratmann, 
 O. Yazyev, A. J. Austin, R. Cammi, C. Pomelli, J. W. Ochterski, 
 R. L. Martin, K. Morokuma, V. G. Zakrzewski, G. A. Voth, 
 P. Salvador, J. J. Dannenberg, S. Dapprich, A. D. Daniels, 
 O. Farkas, J. B. Foresman, J. V. Ortiz, J. Cioslowski, 
 and D. J. Fox, Gaussian, Inc., Wallingford CT, 2013.
 
 ******************************************
 Gaussian 09:  ES64L-G09RevD.01 24-Apr-2013
                14-Nov-2021 
 ******************************************
 %nprocshared=16
 Will use up to   16 processors via shared memory.
 %mem=50GB
 %chk=NHC32.chk
 ----------------------------------------------------------
 #p opt freq n12sx/6-311+g(d,p) scrf=(iefpcm,solvent=water)
 ----------------------------------------------------------
 1/14=-1,18=20,19=15,26=3,38=1/1,3;
 2/9=110,12=2,17=6,18=5,40=1/2;
 3/5=4,6=6,7=111,11=2,16=1,25=1,30=1,70=2201,71=1,72=1,74=-69/1,2,3;
 4//1;
 5/5=2,38=5,53=1/2;
 6/7=2,8=2,9=2,10=2,28=1/1;
 7//1,2,3,16;
 1/14=-1,18=20,19=15,26=3/3(2);
 2/9=110/2;
 99//99;
 2/9=110/2;
 3/5=4,6=6,7=111,11=2,16=1,25=1,30=1,70=2205,71=1,72=1,74=-69/1,2,3;
 4/5=5,16=3,69=1/1;
 5/5=2,38=5,53=1/2;
 7//1,2,3,16;
 1/14=-1,18=20,19=15,26=3/3(-5);
 2/9=110/2;
 6/7=2,8=2,9=2,10=2,19=2,28=1/1;
 99/9=1/99;
 Leave Link    1 at Sun Nov 14 13:51:21 2021, MaxMem=  6710886400 cpu:         0.7
 (Enter /usr/local/gqt/g09/l101.exe)
 -----
 TITLE
 -----
 Symbolic Z-matrix:
 Charge =  0 Multiplicity = 1
 6                    -3.04851   0.85264  -1.11919 
 7                    -1.93589  -0.03708  -0.79218 
 6                    -2.48185  -1.25977  -0.51296 
 6                    -3.80473  -1.15686  -0.54239 
 6                    -4.6179   -2.18266  -0.27024 
 6                    -4.0832   -3.42726   0.06226 
 6                    -4.9316   -4.49746   0.34606 
 6                    -6.3146   -4.32296   0.29746 
 6                    -6.8493   -3.07836  -0.03494 
 6                    -6.0009   -2.00816  -0.31884 
 6                    -3.2393    2.26754  -1.56938 
 6                    -2.89581   2.63804  -2.86947 
 6                    -3.07348   3.95645  -3.28886 
 6                    -3.59472   4.90421  -2.4082 
 6                    -3.93829   4.5337   -1.10816 
 6                    -3.76054   3.2153   -0.68872 
 1                    -2.99251  -3.56482   0.10068 
 1                    -4.50997  -5.47904   0.6082 
 1                    -6.98362  -5.16694   0.52129 
 1                    -7.93999  -2.94076  -0.0732 
 1                    -6.42254  -1.02659  -0.58105 
 1                    -2.48483   1.89056  -3.564 
 1                    -2.80251   4.24871  -4.31412 
 1                    -3.73483   5.9439   -2.73898 
 1                    -4.34941   5.28115  -0.41368 
 1                    -4.03143   2.92305   0.33657 
 6                    -0.50857   0.31371  -0.76809 
 6                     0.17263   0.48613   0.4487 
 6                     0.21331   0.48613  -1.96119 
 6                     1.52601   0.81875   0.47187 
 6                     1.56671   0.81875  -1.93867 
 6                     2.22958   0.98666  -0.72187 
 1                    -0.3651    0.35788   1.38297 
 1                    -0.29258   0.35788  -2.91309 
 1                     2.03177   0.94696   1.42465 
 1                     2.10433   0.94696  -2.87383 
 1                     3.28406   1.24582  -0.70407 
 16                   -4.54376   0.44997  -0.97173 
 
 NAtoms=     38 NQM=       38 NQMF=       0 NMMI=      0 NMMIF=      0
                NMic=       0 NMicF=      0.
                    Isotopes and Nuclear Properties:
 (Nuclear quadrupole moments (NQMom) in fm**2, nuclear magnetic moments (NMagM)
  in nuclear magnetons)

  Atom         1           2           3           4           5           6           7           8           9          10
 IAtWgt=          12          14          12          12          12          12          12          12          12          12
 AtmWgt=  12.0000000  14.0030740  12.0000000  12.0000000  12.0000000  12.0000000  12.0000000  12.0000000  12.0000000  12.0000000
 NucSpn=           0           2           0           0           0           0           0           0           0           0
 AtZEff=   0.0000000   0.0000000   0.0000000   0.0000000   0.0000000   0.0000000   0.0000000   0.0000000   0.0000000   0.0000000
 NQMom=    0.0000000   2.0440000   0.0000000   0.0000000   0.0000000   0.0000000   0.0000000   0.0000000   0.0000000   0.0000000
 NMagM=    0.0000000   0.4037610   0.0000000   0.0000000   0.0000000   0.0000000   0.0000000   0.0000000   0.0000000   0.0000000
 AtZNuc=   6.0000000   7.0000000   6.0000000   6.0000000   6.0000000   6.0000000   6.0000000   6.0000000   6.0000000   6.0000000

  Atom        11          12          13          14          15          16          17          18          19          20
 IAtWgt=          12          12          12          12          12          12           1           1           1           1
 AtmWgt=  12.0000000  12.0000000  12.0000000  12.0000000  12.0000000  12.0000000   1.0078250   1.0078250   1.0078250   1.0078250
 NucSpn=           0           0           0           0           0           0           1           1           1           1
 AtZEff=   0.0000000   0.0000000   0.0000000   0.0000000   0.0000000   0.0000000   0.0000000   0.0000000   0.0000000   0.0000000
 NQMom=    0.0000000   0.0000000   0.0000000   0.0000000   0.0000000   0.0000000   0.0000000   0.0000000   0.0000000   0.0000000
 NMagM=    0.0000000   0.0000000   0.0000000   0.0000000   0.0000000   0.0000000   2.7928460   2.7928460   2.7928460   2.7928460
 AtZNuc=   6.0000000   6.0000000   6.0000000   6.0000000   6.0000000   6.0000000   1.0000000   1.0000000   1.0000000   1.0000000

  Atom        21          22          23          24          25          26          27          28          29          30
 IAtWgt=           1           1           1           1           1           1          12          12          12          12
 AtmWgt=   1.0078250   1.0078250   1.0078250   1.0078250   1.0078250   1.0078250  12.0000000  12.0000000  12.0000000  12.0000000
 NucSpn=           1           1           1           1           1           1           0           0           0           0
 AtZEff=   0.0000000   0.0000000   0.0000000   0.0000000   0.0000000   0.0000000   0.0000000   0.0000000   0.0000000   0.0000000
 NQMom=    0.0000000   0.0000000   0.0000000   0.0000000   0.0000000   0.0000000   0.0000000   0.0000000   0.0000000   0.0000000
 NMagM=    2.7928460   2.7928460   2.7928460   2.7928460   2.7928460   2.7928460   0.0000000   0.0000000   0.0000000   0.0000000
 AtZNuc=   1.0000000   1.0000000   1.0000000   1.0000000   1.0000000   1.0000000   6.0000000   6.0000000   6.0000000   6.0000000

  Atom        31          32          33          34          35          36          37          38
 IAtWgt=          12          12           1           1           1           1           1          32
 AtmWgt=  12.0000000  12.0000000   1.0078250   1.0078250   1.0078250   1.0078250   1.0078250  31.9720718
 NucSpn=           0           0           1           1           1           1           1           0
 AtZEff=   0.0000000   0.0000000   0.0000000   0.0000000   0.0000000   0.0000000   0.0000000   0.0000000
 NQMom=    0.0000000   0.0000000   0.0000000   0.0000000   0.0000000   0.0000000   0.0000000   0.0000000
 NMagM=    0.0000000   0.0000000   2.7928460   2.7928460   2.7928460   2.7928460   2.7928460   0.0000000
 AtZNuc=   6.0000000   6.0000000   1.0000000   1.0000000   1.0000000   1.0000000   1.0000000  16.0000000
 Leave Link  101 at Sun Nov 14 13:51:21 2021, MaxMem=  6710886400 cpu:         6.8
 (Enter /usr/local/gqt/g09/l103.exe)

 GradGradGradGradGradGradGradGradGradGradGradGradGradGradGradGradGradGrad
 Berny optimization.
 Initialization pass.
                           ----------------------------
                           !    Initial Parameters    !
                           ! (Angstroms and Degrees)  !
 --------------------------                            --------------------------
 ! Name  Definition              Value          Derivative Info.                !
 --------------------------------------------------------------------------------
 ! R1    R(1,2)                  1.4617         estimate D2E/DX2                !
 ! R2    R(1,11)                 1.497          estimate D2E/DX2                !
 ! R3    R(1,38)                 1.5555         estimate D2E/DX2                !
 ! R4    R(2,3)                  1.3678         estimate D2E/DX2                !
 ! R5    R(2,27)                 1.47           estimate D2E/DX2                !
 ! R6    R(3,4)                  1.3272         estimate D2E/DX2                !
 ! R7    R(4,5)                  1.337          estimate D2E/DX2                !
 ! R8    R(4,38)                 1.82           estimate D2E/DX2                !
 ! R9    R(5,6)                  1.3948         estimate D2E/DX2                !
 ! R10   R(5,10)                 1.3948         estimate D2E/DX2                !
 ! R11   R(6,7)                  1.3949         estimate D2E/DX2                !
 ! R12   R(6,17)                 1.1            estimate D2E/DX2                !
 ! R13   R(7,8)                  1.3948         estimate D2E/DX2                !
 ! R14   R(7,18)                 1.1            estimate D2E/DX2                !
 ! R15   R(8,9)                  1.3948         estimate D2E/DX2                !
 ! R16   R(8,19)                 1.1            estimate D2E/DX2                !
 ! R17   R(9,10)                 1.3949         estimate D2E/DX2                !
 ! R18   R(9,20)                 1.1            estimate D2E/DX2                !
 ! R19   R(10,21)                1.1            estimate D2E/DX2                !
 ! R20   R(11,12)                1.3948         estimate D2E/DX2                !
 ! R21   R(11,16)                1.3948         estimate D2E/DX2                !
 ! R22   R(12,13)                1.3949         estimate D2E/DX2                !
 ! R23   R(12,22)                1.1            estimate D2E/DX2                !
 ! R24   R(13,14)                1.3948         estimate D2E/DX2                !
 ! R25   R(13,23)                1.1            estimate D2E/DX2                !
 ! R26   R(14,15)                1.3948         estimate D2E/DX2                !
 ! R27   R(14,24)                1.1            estimate D2E/DX2                !
 ! R28   R(15,16)                1.3949         estimate D2E/DX2                !
 ! R29   R(15,25)                1.1            estimate D2E/DX2                !
 ! R30   R(16,26)                1.1            estimate D2E/DX2                !
 ! R31   R(27,28)                1.4051         estimate D2E/DX2                !
 ! R32   R(27,29)                1.4051         estimate D2E/DX2                !
 ! R33   R(28,30)                1.3939         estimate D2E/DX2                !
 ! R34   R(28,33)                1.0856         estimate D2E/DX2                !
 ! R35   R(29,31)                1.3939         estimate D2E/DX2                !
 ! R36   R(29,34)                1.0856         estimate D2E/DX2                !
 ! R37   R(30,32)                1.3958         estimate D2E/DX2                !
 ! R38   R(30,35)                1.0863         estimate D2E/DX2                !
 ! R39   R(31,32)                1.3958         estimate D2E/DX2                !
 ! R40   R(31,36)                1.0863         estimate D2E/DX2                !
 ! R41   R(32,37)                1.086          estimate D2E/DX2                !
 ! A1    A(2,1,11)             137.6982         estimate D2E/DX2                !
 ! A2    A(2,1,38)             123.5679         estimate D2E/DX2                !
 ! A3    A(11,1,38)             98.6659         estimate D2E/DX2                !
 ! A4    A(1,2,3)              106.6156         estimate D2E/DX2                !
 ! A5    A(1,2,27)             126.6922         estimate D2E/DX2                !
 ! A6    A(3,2,27)             126.6922         estimate D2E/DX2                !
 ! A7    A(2,3,4)              108.9053         estimate D2E/DX2                !
 ! A8    A(3,4,5)              122.8352         estimate D2E/DX2                !
 ! A9    A(3,4,38)             118.5824         estimate D2E/DX2                !
 ! A10   A(5,4,38)             118.5824         estimate D2E/DX2                !
 ! A11   A(4,5,6)              119.9986         estimate D2E/DX2                !
 ! A12   A(4,5,10)             119.9985         estimate D2E/DX2                !
 ! A13   A(6,5,10)             120.0029         estimate D2E/DX2                !
 ! A14   A(5,6,7)              119.9969         estimate D2E/DX2                !
 ! A15   A(5,6,17)             120.0015         estimate D2E/DX2                !
 ! A16   A(7,6,17)             120.0016         estimate D2E/DX2                !
 ! A17   A(6,7,8)              120.0002         estimate D2E/DX2                !
 ! A18   A(6,7,18)             119.9999         estimate D2E/DX2                !
 ! A19   A(8,7,18)             119.9999         estimate D2E/DX2                !
 ! A20   A(7,8,9)              120.0033         estimate D2E/DX2                !
 ! A21   A(7,8,19)             119.9984         estimate D2E/DX2                !
 ! A22   A(9,8,19)             119.9984         estimate D2E/DX2                !
 ! A23   A(8,9,10)             119.9972         estimate D2E/DX2                !
 ! A24   A(8,9,20)             120.0014         estimate D2E/DX2                !
 ! A25   A(10,9,20)            120.0014         estimate D2E/DX2                !
 ! A26   A(5,10,9)             119.9996         estimate D2E/DX2                !
 ! A27   A(5,10,21)            120.0002         estimate D2E/DX2                !
 ! A28   A(9,10,21)            120.0002         estimate D2E/DX2                !
 ! A29   A(1,11,12)            119.9986         estimate D2E/DX2                !
 ! A30   A(1,11,16)            119.9986         estimate D2E/DX2                !
 ! A31   A(12,11,16)           120.0028         estimate D2E/DX2                !
 ! A32   A(11,12,13)           119.997          estimate D2E/DX2                !
 ! A33   A(11,12,22)           120.0015         estimate D2E/DX2                !
 ! A34   A(13,12,22)           120.0015         estimate D2E/DX2                !
 ! A35   A(12,13,14)           120.0001         estimate D2E/DX2                !
 ! A36   A(12,13,23)           119.9999         estimate D2E/DX2                !
 ! A37   A(14,13,23)           119.9999         estimate D2E/DX2                !
 ! A38   A(13,14,15)           120.0033         estimate D2E/DX2                !
 ! A39   A(13,14,24)           119.9983         estimate D2E/DX2                !
 ! A40   A(15,14,24)           119.9984         estimate D2E/DX2                !
 ! A41   A(14,15,16)           119.9972         estimate D2E/DX2                !
 ! A42   A(14,15,25)           120.0014         estimate D2E/DX2                !
 ! A43   A(16,15,25)           120.0014         estimate D2E/DX2                !
 ! A44   A(11,16,15)           119.9996         estimate D2E/DX2                !
 ! A45   A(11,16,26)           120.0003         estimate D2E/DX2                !
 ! A46   A(15,16,26)           120.0002         estimate D2E/DX2                !
 ! A47   A(2,27,28)            120.9441         estimate D2E/DX2                !
 ! A48   A(2,27,29)            120.9441         estimate D2E/DX2                !
 ! A49   A(28,27,29)           118.1119         estimate D2E/DX2                !
 ! A50   A(27,28,30)           120.9574         estimate D2E/DX2                !
 ! A51   A(27,28,33)           119.3831         estimate D2E/DX2                !
 ! A52   A(30,28,33)           119.6595         estimate D2E/DX2                !
 ! A53   A(27,29,31)           120.9574         estimate D2E/DX2                !
 ! A54   A(27,29,34)           119.3831         estimate D2E/DX2                !
 ! A55   A(31,29,34)           119.6595         estimate D2E/DX2                !
 ! A56   A(28,30,32)           120.2599         estimate D2E/DX2                !
 ! A57   A(28,30,35)           119.6574         estimate D2E/DX2                !
 ! A58   A(32,30,35)           120.0828         estimate D2E/DX2                !
 ! A59   A(29,31,32)           120.2599         estimate D2E/DX2                !
 ! A60   A(29,31,36)           119.6574         estimate D2E/DX2                !
 ! A61   A(32,31,36)           120.0828         estimate D2E/DX2                !
 ! A62   A(30,32,31)           119.4536         estimate D2E/DX2                !
 ! A63   A(30,32,37)           120.2732         estimate D2E/DX2                !
 ! A64   A(31,32,37)           120.2732         estimate D2E/DX2                !
 ! A65   A(1,38,4)              81.986          estimate D2E/DX2                !
 ! D1    D(11,1,2,3)          -176.7322         estimate D2E/DX2                !
 ! D2    D(11,1,2,27)            3.2678         estimate D2E/DX2                !
 ! D3    D(38,1,2,3)             6.9768         estimate D2E/DX2                !
 ! D4    D(38,1,2,27)         -173.0232         estimate D2E/DX2                !
 ! D5    D(2,1,11,12)           71.2848         estimate D2E/DX2                !
 ! D6    D(2,1,11,16)         -108.7152         estimate D2E/DX2                !
 ! D7    D(38,1,11,12)        -111.8407         estimate D2E/DX2                !
 ! D8    D(38,1,11,16)          68.1593         estimate D2E/DX2                !
 ! D9    D(2,1,38,4)            -4.8072         estimate D2E/DX2                !
 ! D10   D(11,1,38,4)          177.717          estimate D2E/DX2                !
 ! D11   D(1,2,3,4)             -4.6805         estimate D2E/DX2                !
 ! D12   D(27,2,3,4)           175.3195         estimate D2E/DX2                !
 ! D13   D(1,2,27,28)          105.2449         estimate D2E/DX2                !
 ! D14   D(1,2,27,29)          -74.7551         estimate D2E/DX2                !
 ! D15   D(3,2,27,28)          -74.7551         estimate D2E/DX2                !
 ! D16   D(3,2,27,29)          105.2449         estimate D2E/DX2                !
 ! D17   D(2,3,4,5)           -178.0404         estimate D2E/DX2                !
 ! D18   D(2,3,4,38)             1.9596         estimate D2E/DX2                !
 ! D19   D(3,4,5,6)              0.0            estimate D2E/DX2                !
 ! D20   D(3,4,5,10)           180.0            estimate D2E/DX2                !
 ! D21   D(38,4,5,6)           180.0            estimate D2E/DX2                !
 ! D22   D(38,4,5,10)            0.0            estimate D2E/DX2                !
 ! D23   D(3,4,38,1)             1.5247         estimate D2E/DX2                !
 ! D24   D(5,4,38,1)          -178.4753         estimate D2E/DX2                !
 ! D25   D(4,5,6,7)           -179.9942         estimate D2E/DX2                !
 ! D26   D(4,5,6,17)             0.0058         estimate D2E/DX2                !
 ! D27   D(10,5,6,7)             0.0058         estimate D2E/DX2                !
 ! D28   D(10,5,6,17)         -179.9942         estimate D2E/DX2                !
 ! D29   D(4,5,10,9)           179.9988         estimate D2E/DX2                !
 ! D30   D(4,5,10,21)           -0.0012         estimate D2E/DX2                !
 ! D31   D(6,5,10,9)            -0.0012         estimate D2E/DX2                !
 ! D32   D(6,5,10,21)          179.9988         estimate D2E/DX2                !
 ! D33   D(5,6,7,8)             -0.0058         estimate D2E/DX2                !
 ! D34   D(5,6,7,18)           179.9942         estimate D2E/DX2                !
 ! D35   D(17,6,7,8)           179.9942         estimate D2E/DX2                !
 ! D36   D(17,6,7,18)           -0.0058         estimate D2E/DX2                !
 ! D37   D(6,7,8,9)              0.0012         estimate D2E/DX2                !
 ! D38   D(6,7,8,19)          -179.9987         estimate D2E/DX2                !
 ! D39   D(18,7,8,9)          -179.9988         estimate D2E/DX2                !
 ! D40   D(18,7,8,19)            0.0012         estimate D2E/DX2                !
 ! D41   D(7,8,9,10)             0.0034         estimate D2E/DX2                !
 ! D42   D(7,8,9,20)          -179.9966         estimate D2E/DX2                !
 ! D43   D(19,8,9,10)         -179.9967         estimate D2E/DX2                !
 ! D44   D(19,8,9,20)            0.0034         estimate D2E/DX2                !
 ! D45   D(8,9,10,5)            -0.0034         estimate D2E/DX2                !
 ! D46   D(8,9,10,21)          179.9966         estimate D2E/DX2                !
 ! D47   D(20,9,10,5)          179.9966         estimate D2E/DX2                !
 ! D48   D(20,9,10,21)          -0.0034         estimate D2E/DX2                !
 ! D49   D(1,11,12,13)        -179.9942         estimate D2E/DX2                !
 ! D50   D(1,11,12,22)           0.0058         estimate D2E/DX2                !
 ! D51   D(16,11,12,13)          0.0058         estimate D2E/DX2                !
 ! D52   D(16,11,12,22)       -179.9942         estimate D2E/DX2                !
 ! D53   D(1,11,16,15)         179.9988         estimate D2E/DX2                !
 ! D54   D(1,11,16,26)          -0.0013         estimate D2E/DX2                !
 ! D55   D(12,11,16,15)         -0.0012         estimate D2E/DX2                !
 ! D56   D(12,11,16,26)        179.9988         estimate D2E/DX2                !
 ! D57   D(11,12,13,14)         -0.0058         estimate D2E/DX2                !
 ! D58   D(11,12,13,23)        179.9942         estimate D2E/DX2                !
 ! D59   D(22,12,13,14)        179.9941         estimate D2E/DX2                !
 ! D60   D(22,12,13,23)         -0.0058         estimate D2E/DX2                !
 ! D61   D(12,13,14,15)          0.0013         estimate D2E/DX2                !
 ! D62   D(12,13,14,24)       -179.9988         estimate D2E/DX2                !
 ! D63   D(23,13,14,15)       -179.9988         estimate D2E/DX2                !
 ! D64   D(23,13,14,24)          0.0011         estimate D2E/DX2                !
 ! D65   D(13,14,15,16)          0.0033         estimate D2E/DX2                !
 ! D66   D(13,14,15,25)       -179.9967         estimate D2E/DX2                !
 ! D67   D(24,14,15,16)       -179.9966         estimate D2E/DX2                !
 ! D68   D(24,14,15,25)          0.0034         estimate D2E/DX2                !
 ! D69   D(14,15,16,11)         -0.0033         estimate D2E/DX2                !
 ! D70   D(14,15,16,26)        179.9967         estimate D2E/DX2                !
 ! D71   D(25,15,16,11)        179.9966         estimate D2E/DX2                !
 ! D72   D(25,15,16,26)         -0.0034         estimate D2E/DX2                !
 ! D73   D(2,27,28,30)         180.0            estimate D2E/DX2                !
 ! D74   D(2,27,28,33)           0.0            estimate D2E/DX2                !
 ! D75   D(29,27,28,30)          0.0            estimate D2E/DX2                !
 ! D76   D(29,27,28,33)        180.0            estimate D2E/DX2                !
 ! D77   D(2,27,29,31)         180.0            estimate D2E/DX2                !
 ! D78   D(2,27,29,34)           0.0            estimate D2E/DX2                !
 ! D79   D(28,27,29,31)          0.0            estimate D2E/DX2                !
 ! D80   D(28,27,29,34)        180.0            estimate D2E/DX2                !
 ! D81   D(27,28,30,32)          0.0            estimate D2E/DX2                !
 ! D82   D(27,28,30,35)        180.0            estimate D2E/DX2                !
 ! D83   D(33,28,30,32)        180.0            estimate D2E/DX2                !
 ! D84   D(33,28,30,35)          0.0            estimate D2E/DX2                !
 ! D85   D(27,29,31,32)          0.0            estimate D2E/DX2                !
 ! D86   D(27,29,31,36)        180.0            estimate D2E/DX2                !
 ! D87   D(34,29,31,32)        180.0            estimate D2E/DX2                !
 ! D88   D(34,29,31,36)          0.0            estimate D2E/DX2                !
 ! D89   D(28,30,32,31)          0.0            estimate D2E/DX2                !
 ! D90   D(28,30,32,37)        180.0            estimate D2E/DX2                !
 ! D91   D(35,30,32,31)        180.0            estimate D2E/DX2                !
 ! D92   D(35,30,32,37)          0.0            estimate D2E/DX2                !
 ! D93   D(29,31,32,30)          0.0            estimate D2E/DX2                !
 ! D94   D(29,31,32,37)       -180.0            estimate D2E/DX2                !
 ! D95   D(36,31,32,30)       -180.0            estimate D2E/DX2                !
 ! D96   D(36,31,32,37)          0.0            estimate D2E/DX2                !
 --------------------------------------------------------------------------------
 Trust Radius=3.00D-01 FncErr=1.00D-07 GrdErr=1.00D-06
 Number of steps in this run=    212 maximum allowed number of steps=    228.
 GradGradGradGradGradGradGradGradGradGradGradGradGradGradGradGradGradGrad

 Leave Link  103 at Sun Nov 14 13:51:21 2021, MaxMem=  6710886400 cpu:         0.1
 (Enter /usr/local/gqt/g09/l202.exe)
                          Input orientation:                          
 ---------------------------------------------------------------------
 Center     Atomic      Atomic             Coordinates (Angstroms)
 Number     Number       Type             X           Y           Z
 ---------------------------------------------------------------------
      1          6           0       -3.048514    0.852638   -1.119194
      2          7           0       -1.935893   -0.037080   -0.792184
      3          6           0       -2.481854   -1.259766   -0.512956
      4          6           0       -3.804727   -1.156861   -0.542385
      5          6           0       -4.617900   -2.182656   -0.270239
      6          6           0       -4.083200   -3.427256    0.062261
      7          6           0       -4.931600   -4.497456    0.346061
      8          6           0       -6.314600   -4.322956    0.297461
      9          6           0       -6.849300   -3.078356   -0.034939
     10          6           0       -6.000900   -2.008156   -0.318839
     11          6           0       -3.239297    2.267539   -1.569377
     12          6           0       -2.895808    2.638041   -2.869466
     13          6           0       -3.073475    3.956447   -3.288862
     14          6           0       -3.594719    4.904205   -2.408202
     15          6           0       -3.938294    4.533698   -1.108162
     16          6           0       -3.760540    3.215297   -0.688717
     17          1           0       -2.992513   -3.564823    0.100675
     18          1           0       -4.509968   -5.479042    0.608196
     19          1           0       -6.983625   -5.166937    0.521293
     20          1           0       -7.939989   -2.940758   -0.073203
     21          1           0       -6.422538   -1.026591   -0.581047
     22          1           0       -2.484828    1.890565   -3.563998
     23          1           0       -2.802514    4.248714   -4.314123
     24          1           0       -3.734835    5.943895   -2.738978
     25          1           0       -4.349415    5.281148   -0.413685
     26          1           0       -4.031434    2.923054    0.336568
     27          6           0       -0.508565    0.313711   -0.768089
     28          6           0        0.172629    0.486126    0.448701
     29          6           0        0.213311    0.486126   -1.961195
     30          6           0        1.526015    0.818746    0.471871
     31          6           0        1.566707    0.818746   -1.938672
     32          6           0        2.229582    0.986659   -0.721867
     33          1           0       -0.365098    0.357882    1.382974
     34          1           0       -0.292577    0.357882   -2.913085
     35          1           0        2.031769    0.946960    1.424647
     36          1           0        2.104331    0.946960   -2.873834
     37          1           0        3.284058    1.245815   -0.704067
     38         16           0       -4.543756    0.449968   -0.971731
 ---------------------------------------------------------------------
                    Distance matrix (angstroms):
                    1          2          3          4          5
     1  C    0.000000
     2  N    1.461663   0.000000
     3  C    2.269555   1.367846   0.000000
     4  C    2.223208   2.192909   1.327196   0.000000
     5  C    3.520896   3.474059   2.339515   1.337000   0.000000
     6  C    4.558937   4.102962   2.755576   2.365975   1.394808
     7  C    5.858028   5.492251   4.149916   3.635760   2.415892
     8  C    6.281799   6.223274   4.972912   4.126616   2.789616
     9  C    5.574432   5.827894   4.755035   3.635804   2.415945
    10  C    4.188233   4.542409   3.602978   2.365978   1.394812
    11  C    1.496999   2.759377   3.759205   3.619522   4.836583
    12  C    2.504882   3.520342   4.573554   4.543426   5.741141
    13  C    3.787046   4.845178   5.938396   5.850110   7.013267
    14  C    4.286616   5.457061   6.544079   6.345226   7.472709
    15  C    3.787088   5.000146   6.003308   5.720175   6.802455
    16  C    2.504885   3.730684   4.657480   4.374830   5.481614
    17  H    4.583141   3.789276   2.439386   2.621354   2.165605
    18  H    6.723830   6.180767   4.813784   4.527963   3.413130
    19  H    7.376420   7.315754   6.049925   5.226616   3.889616
    20  H    6.277777   6.708014   5.728032   4.528003   3.413183
    21  H    3.899377   4.599315   3.948164   2.621335   2.165596
    22  H    2.715161   3.420541   4.385596   4.489887   5.655968
    23  H    4.669199   5.614545   6.700376   6.667134   7.810963
    24  H    5.386616   6.542038   7.643158   7.433078   8.539046
    25  H    4.669238   5.852512   6.803028   6.462291   7.470009
    26  H    2.715142   3.798390   4.540801   4.179672   5.174981
    27  C    2.620125   1.470000   2.536689   3.616381   4.833874
    28  C    3.601165   2.501881   3.319519   4.415996   5.530682
    29  C    3.388627   2.501881   3.522704   4.566952   5.772549
    30  C    4.843444   3.783527   4.620942   5.774820   6.877996
    31  C    4.687532   3.783527   4.769038   5.891090   7.073997
    32  C    5.294727   4.290008   5.223763   6.406230   7.558872
    33  H    3.702209   2.711956   3.269861   4.222855   5.222430
    34  H    3.325360   2.711956   3.629097   4.499985   5.669867
    35  H    5.682367   4.650270   5.384861   6.508453   7.542229
    36  H    5.444214   4.650270   5.610390   6.691687   7.858854
    37  H    6.358332   5.376009   6.289690   7.486646   8.624590
    38  S    1.555518   2.659022   2.717554   1.820000   2.725490
                    6          7          8          9         10
     6  C    0.000000
     7  C    1.394867   0.000000
     8  C    2.415935   1.394812   0.000000
     9  C    2.789711   2.415901   1.394784   0.000000
    10  C    2.415917   2.789643   2.415892   1.394887   0.000000
    11  C    5.983737   7.231732   7.508475   6.630627   5.241361
    12  C    6.840523   8.086988   8.376935   7.506120   6.142837
    13  C    8.171208   9.387959   9.587237   8.621678   7.277867
    14  C    8.703737   9.887590   9.992941   8.941250   7.611562
    15  C    8.047837   9.201259   9.277011   8.220044   6.904580
    16  C    6.692652   7.869480   8.020040   7.041160   5.695655
    17  H    1.099999   2.165659   3.413173   3.889710   3.413151
    18  H    2.165641   1.100000   2.165592   3.413120   3.889643
    19  H    3.413161   2.165576   1.100000   2.165550   3.413132
    20  H    3.889711   3.413136   2.165584   1.100000   2.165675
    21  H    3.413142   3.889644   3.413129   2.165664   1.100001
    22  H    6.632026   7.879217   8.257473   7.496202   6.172021
    23  H    8.928236  10.136361  10.347704   9.400736   8.083340
    24  H    9.787072  10.953152  11.012874   9.920320   8.615523
    25  H    8.725462   9.825337   9.828860   8.733509   7.474647
    26  H    6.356442   7.474915   7.597305   6.640430   5.350251
    27  C    5.240451   6.629623   7.506272   7.228316   5.979853
    28  C    5.794478   7.134408   8.076775   7.889672   6.702464
    29  C    6.153774   7.525266   8.416793   8.142264   6.894577
    30  C    7.046957   8.365322   9.377780   9.251495   8.079049
    31  C    7.345319   8.701149   9.672248   9.467881   8.239169
    32  C    7.742656   9.082870  10.111088   9.971074   8.767679
    33  H    5.467709   6.745550   7.647559   7.474161   6.344807
    34  H    6.127706   7.464374   8.275423   7.942423   6.701732
    35  H    7.640857   8.904690   9.935010   9.859358   8.734771
    36  H    8.126497   9.461169  10.426290  10.219100   8.997526
    37  H    8.757930  10.078937  11.142195  11.037714   9.846175
    38  S    4.039074   5.134589   5.246669   4.317660   2.931196
                   11         12         13         14         15
    11  C    0.000000
    12  C    1.394808   0.000000
    13  C    2.415893   1.394867   0.000000
    14  C    2.789617   2.415935   1.394812   0.000000
    15  C    2.415945   2.789710   2.415901   1.394784   0.000000
    16  C    1.394812   2.415916   2.789644   2.415892   1.394887
    17  H    6.071772   6.877980   8.250153   8.853336   8.242683
    18  H    8.146530   8.977009  10.309172  10.851182  10.174854
    19  H    8.582676   9.440613  10.632154  11.022456  10.297159
    20  H    7.173660   8.024079   9.032987   9.266986   8.541206
    21  H    4.686268   5.577115   6.586285   6.819780   6.112784
    22  H    2.165606   1.100000   2.165659   3.413173   3.889710
    23  H    3.413131   2.165642   1.100000   2.165593   3.413121
    24  H    3.889617   3.413161   2.165576   1.100000   2.165551
    25  H    3.413184   3.889711   3.413136   2.165583   1.100001
    26  H    2.165596   3.413142   3.889644   3.413128   2.165663
    27  C    3.452014   3.939190   5.118846   5.769484   5.448576
    28  C    4.345954   5.005625   6.045635   6.471030   5.975479
    29  C    3.904799   3.888742   4.960725   5.849814   5.860574
    30  C    5.382740   5.833257   6.718898   7.155956   6.793824
    31  C    5.033195   4.908182   5.761898   6.599375   6.692955
    32  C    5.680455   5.797315   6.597842   7.218959   7.125546
    33  H    4.541386   5.448565   6.489301   6.743331   6.034147
    34  H    3.759721   3.460901   4.563362   5.641640   5.829789
    35  H    6.204211   6.751308   7.572165   7.874508   7.410901
    36  H    5.656845   5.278367   6.003244   6.953831   7.245385
    37  H    6.659342   6.694623   7.378815   7.975303   7.945806
    38  S    2.315676   3.332386   4.452664   4.775390   4.130623
                   16         17         18         19         20
    16  C    0.000000
    17  H    6.868991   0.000000
    18  H    8.822424   2.494891   0.000000
    19  H    9.061692   4.321188   2.494783   0.000000
    20  H    7.466168   4.989710   4.321138   2.494781   0.000000
    21  H    5.009136   4.321162   4.989644   4.321162   2.494915
    22  H    3.413151   6.591573   8.707439   9.313276   8.079982
    23  H    3.889644   8.976519  11.035119  11.380572   9.801406
    24  H    3.413133   9.951402  11.928449  12.026413  10.184633
    25  H    2.165677   8.964204  10.809797  10.815532   8.978190
    26  H    1.100000   6.574766   8.420095   8.613798   7.058966
    27  C    4.358996   4.686979   7.173658   8.580583   8.142512
    28  C    4.920561   5.152614   7.585208   9.119998   8.822159
    29  C    4.985887   5.562266   8.030838   9.482391   9.043469
    30  C    5.919298   6.306390   8.724322  10.404076  10.199814
    31  C    5.973726   6.645381   9.114529  10.723246  10.391877
    32  C    6.391361   6.975876   9.433764  11.148784  10.920877
    33  H    4.897525   4.892363   7.200689   8.664354   8.389306
    34  H    5.013921   5.635603   8.015953   9.332133   8.799368
    35  H    6.569817   6.881315   9.206216  10.930375  10.807120
    36  H    6.657086   7.428439   9.857331  11.467239  11.128623
    37  H    7.314742   7.948911  10.377503  12.167588  11.996025
    38  S    2.888005   4.435646   6.135998   6.303309   4.882497
                   21         22         23         24         25
    21  H    0.000000
    22  H    5.737016   0.000000
    23  H    7.407379   2.494890   0.000000
    24  H    7.776123   4.321188   2.494784   0.000000
    25  H    6.641794   4.989711   4.321139   2.494780   0.000000
    26  H    4.707345   4.321162   4.989644   4.321162   2.494915
    27  C    6.066834   3.769508   5.772417   6.781754   6.289130
    28  C    6.844335   5.013610   6.759662   7.430802   6.647167
    29  C    6.944610   3.438223   5.365495   6.780859   6.797462
    30  C    8.227599   5.789982   7.307980   8.015812   7.430876
    31  C    8.311224   4.495043   6.041319   7.417142   7.565654
    32  C    8.884379   5.578568   6.990514   8.013563   7.862621
    33  H    6.516650   5.595972   7.316863   7.716810   6.583412
    34  H    6.703103   2.752956   4.837485   6.563764   6.851531
    35  H    8.910275   6.795337   8.197886   8.692459   7.929953
    36  H    9.047611   4.735725   6.087128   7.686573   8.154039
    37  H    9.969802   6.471086   7.687409   8.687788   8.639336
    38  S    2.421298   3.610312   5.351073   5.827586   4.867184
                   26         27         28         29         30
    26  H    0.000000
    27  C    4.521011   0.000000
    28  C    4.860590   1.405109   0.000000
    29  C    5.407050   1.405109   2.410239   0.000000
    30  C    5.944043   2.435585   1.393852   2.784535   0.000000
    31  C    6.398751   2.435585   2.784535   1.393852   2.410886
    32  C    6.638541   2.820008   2.419053   2.419053   1.395784
    33  H    4.595333   2.156295   1.085571   3.396243   2.149142
    34  H    5.578477   2.156295   3.396243   1.085571   3.870090
    35  H    6.469257   3.415024   2.149706   3.870798   1.086281
    36  H    7.201336   3.415024   3.870798   2.149706   3.397739
    37  H    7.577101   3.906009   3.403966   3.403966   2.157761
    38  S    2.844341   4.042623   4.925771   4.859015   6.249967
                   31         32         33         34         35
    31  C    0.000000
    32  C    1.395784   0.000000
    33  H    3.870090   3.399718   0.000000
    34  H    2.149142   3.399718   4.296672   0.000000
    35  H    3.397739   2.155975   2.468546   4.956361   0.000000
    36  H    1.086281   2.155975   4.956361   2.468546   4.299093
    37  H    2.157761   1.086000   4.296569   4.296569   2.487762
    38  S    6.197477   6.799160   4.797322   4.674383   7.016206
                   36         37         38
    36  H    0.000000
    37  H    2.487762   0.000000
    38  S    6.932680   7.872717   0.000000
 Stoichiometry    C21H15NS
 Framework group  C1[X(C21H15NS)]
 Deg. of freedom   108
 Full point group                 C1      NOp   1
 Largest Abelian subgroup         C1      NOp   1
 Largest concise Abelian subgroup C1      NOp   1
                         Standard orientation:                         
 ---------------------------------------------------------------------
 Center     Atomic      Atomic             Coordinates (Angstroms)
 Number     Number       Type             X           Y           Z
 ---------------------------------------------------------------------
      1          6           0       -0.396615   -0.553074   -0.020624
      2          7           0       -0.357331    0.907908   -0.041803
      3          6           0        0.961353    1.262622   -0.120875
      4          6           0        1.706607    0.166968   -0.046113
      5          6           0        3.043218    0.197198   -0.057310
      6          6           0        3.712416    1.417423   -0.150663
      7          6           0        5.106877    1.448911   -0.162463
      8          6           0        5.832023    0.260217   -0.080791
      9          6           0        5.162846   -0.959985    0.012656
     10          6           0        3.768364   -0.991496    0.024362
     11          6           0       -1.433543   -1.632685   -0.005585
     12          6           0       -2.195452   -1.883781   -1.146609
     13          6           0       -3.161710   -2.889663   -1.132520
     14          6           0       -3.365903   -3.644440    0.022521
     15          6           0       -2.603947   -3.393420    1.163500
     16          6           0       -1.637737   -2.387462    1.149456
     17          1           0        3.140518    2.354863   -0.214975
     18          1           0        5.634682    2.411193   -0.236179
     19          1           0        6.931703    0.285085   -0.090079
     20          1           0        5.734753   -1.897410    0.077121
     21          1           0        3.240563   -1.953788    0.098002
     22          1           0       -2.034333   -1.288587   -2.057535
     23          1           0       -3.762673   -3.087665   -2.032319
     24          1           0       -4.127895   -4.437691    0.033591
     25          1           0       -2.764970   -3.988721    2.074373
     26          1           0       -1.036829   -2.189416    2.049282
     27          6           0       -1.510153    1.818436    0.011482
     28          6           0       -1.815417    2.529767    1.184151
     29          6           0       -2.338119    2.002159   -1.108808
     30          6           0       -2.908452    3.393200    1.234984
     31          6           0       -3.431294    2.865450   -1.058592
     32          6           0       -3.721696    3.565169    0.113702
     33          1           0       -1.189412    2.403366    2.061992
     34          1           0       -2.121219    1.462812   -2.025609
     35          1           0       -3.125063    3.932666    2.152624
     36          1           0       -4.057396    2.991582   -1.937281
     37          1           0       -4.573373    4.237846    0.153068
     38         16           0        0.873142   -1.446286    0.076962
 ---------------------------------------------------------------------
 Rotational constants (GHZ):      0.3253955      0.1713552      0.1209444
 Leave Link  202 at Sun Nov 14 13:51:21 2021, MaxMem=  6710886400 cpu:         0.1
 (Enter /usr/local/gqt/g09/l301.exe)
 Standard basis: 6-311+G(d,p) (5D, 7F)
 Ernie: Thresh=  0.10000D-02 Tol=  0.10000D-05 Strict=F.
 There are   627 symmetry adapted cartesian basis functions of A   symmetry.
 There are   604 symmetry adapted basis functions of A   symmetry.
   604 basis functions,   962 primitive gaussians,   627 cartesian basis functions
    82 alpha electrons       82 beta electrons
       nuclear repulsion energy      1836.7558686571 Hartrees.
 IExCor= 5547 DFT=T Ex+Corr=N12SX ExCW=0 ScaHFX=  0.250000
 ScaDFX=  1.000000  1.000000  1.000000  1.000000 ScalE2=  1.000000  1.000000
 IRadAn=      0 IRanWt=     -1 IRanGd=            0 ICorTp=0 IEmpDi=  4
  HFx wShort=  0.110000 wLong=  0.000000 cFull=  0.000000 cShort=  1.000000 cLong=  0.000000
  DFx wShort=  0.110000 wLong=  0.000000 cFull=  0.000000 cShort=  1.000000 cLong=  0.000000
 NAtoms=   38 NActive=   38 NUniq=   38 SFac= 1.00D+00 NAtFMM=   60 NAOKFM=F Big=F
 Integral buffers will be    131072 words long.
 Raffenetti 2 integral format.
 Two-electron integral symmetry is turned on.
 ------------------------------------------------------------------------------
 Polarizable Continuum Model (PCM)
 =================================
 Model                : PCM (using non-symmetric T matrix).
 Atomic radii         : UFF (Universal Force Field).
 Polarization charges : Total charges.
 Charge compensation  : None.
 Solution method      : On-the-fly selection.
 Cavity type          : Scaled VdW (van der Waals Surface) (Alpha=1.100).
 Cavity algorithm     : GePol (No added spheres)
                        Default sphere list used, NSphG=   38.
                        Lebedev-Laikov grids with approx.  5.0 points / Ang**2.
                        Smoothing algorithm: Karplus/York (Gamma=1.0000).
                        Polarization charges: spherical gaussians, with
                                              point-specific exponents (IZeta= 3).
                        Self-potential: point-specific (ISelfS= 7).
                        Self-field    : sphere-specific E.n sum rule (ISelfD= 2).
 1st derivatives      : Analytical E(r).r(x)/FMM algorithm (CHGder, D1EAlg=3).
                        Cavity 1st derivative terms included.
 Solvent              : Water, Eps=  78.355300 Eps(inf)=   1.777849
 ------------------------------------------------------------------------------
 GePol: Number of generator spheres                  =      38
 GePol: Total number of spheres                      =      38
 GePol: Number of exposed spheres                    =      38 (100.00%)
 GePol: Number of points                             =    3034
 GePol: Average weight of points                     =       0.13
 GePol: Minimum weight of points                     =   0.15D-11
 GePol: Maximum weight of points                     =    0.20577
 GePol: Number of points with low weight             =     189
 GePol: Fraction of low-weight points (<1% of avg)   =       6.23%
 GePol: Cavity surface area                          =    393.640 Ang**2
 GePol: Cavity volume                                =    431.120 Ang**3
 Leave Link  301 at Sun Nov 14 13:51:21 2021, MaxMem=  6710886400 cpu:         0.8
 (Enter /usr/local/gqt/g09/l302.exe)
 NPDir=0 NMtPBC=     1 NCelOv=     1 NCel=       1 NClECP=     1 NCelD=      1
         NCelK=      1 NCelE2=     1 NClLst=     1 CellRange=     0.0.
 One-electron integrals computed using PRISM.
 NBasis=   604 RedAO= T EigKep=  1.35D-06  NBF=   604
 NBsUse=   600 1.00D-06 EigRej=  7.71D-07 NBFU=   600
 Precomputing XC quadrature grid using
 IXCGrd= 4 IRadAn=           0 IRanWt=          -1 IRanGd=           0 AccXCQ= 0.00D+00.
 Generated NRdTot=       0 NPtTot=           0 NUsed=           0 NTot=          32
 NSgBfM=   608   608   608   610   610 MxSgAt=    38 MxSgA2=    38.
 Leave Link  302 at Sun Nov 14 13:51:22 2021, MaxMem=  6710886400 cpu:        14.7
 (Enter /usr/local/gqt/g09/l303.exe)
 DipDrv:  MaxL=1.
 Leave Link  303 at Sun Nov 14 13:51:22 2021, MaxMem=  6710886400 cpu:         1.3
 (Enter /usr/local/gqt/g09/l401.exe)
 ExpMin= 4.05D-02 ExpMax= 9.34D+04 ExpMxC= 3.17D+03 IAcc=2 IRadAn=         4 AccDes= 0.00D+00
 Harris functional with IExCor= 5547 and IRadAn=       4 diagonalized for initial guess.
 HarFok:  IExCor= 5547 AccDes= 0.00D+00 IRadAn=         4 IDoV= 1 UseB2=F ITyADJ=14
 ICtDFT=  3500011 ScaDFX=  1.000000  1.000000  1.000000  1.000000
 FoFCou: FMM=F IPFlag=           0 FMFlag=      100000 FMFlg1=           0
         NFxFlg=           0 DoJE=T BraDBF=F KetDBF=T FulRan=T
         wScrn=  0.000000 ICntrl=     500 IOpCl=  0 I1Cent=   200000004 NGrid=           0
         NMat0=    1 NMatS0=      1 NMatT0=    0 NMatD0=    1 NMtDS0=    0 NMtDT0=    0
 Petite list used in FoFCou.
 Harris En= -1228.40220379539    
 JPrj=0 DoOrth=F DoCkMO=F.
 Leave Link  401 at Sun Nov 14 13:51:25 2021, MaxMem=  6710886400 cpu:        38.8
 (Enter /usr/local/gqt/g09/l502.exe)
 Closed shell SCF:
 Using DIIS extrapolation, IDIIS=  1040.
 Integral symmetry usage will be decided dynamically.
 IVT=     1212616 IEndB=     1212616 NGot=  6710886400 MDV=  6710084181
 LenX=  6710084181 LenY=  6709690425
 Requested convergence on RMS density matrix=1.00D-08 within 128 cycles.
 Requested convergence on MAX density matrix=1.00D-06.
 Requested convergence on             energy=1.00D-06.
 No special actions if energy rises.
 Fock matrices will be formed incrementally for  20 cycles.

 Cycle   1  Pass 1  IDiag  1:
 FoFJK:  IHMeth= 1 ICntrl=       0 DoSepK=T KAlg= 0 I1Cent=   0 FoldK=F
 IRaf=         1 NMat=   1 IRICut=       1 DoRegI=T DoRafI=F ISym2E= 0.
 FoFCou: FMM=F IPFlag=           0 FMFlag=      100000 FMFlg1=           0
         NFxFlg=           0 DoJE=T BraDBF=F KetDBF=F FulRan=T
         wScrn=  0.000000 ICntrl=     500 IOpCl=  0 I1Cent=           0 NGrid=           0
         NMat0=    1 NMatS0=      1 NMatT0=    0 NMatD0=    1 NMtDS0=    0 NMtDT0=    0
 Symmetry not used in FoFCou.
 Inv3:  Mode=1 IEnd=    27615468.
 Iteration    1 A*A^-1 deviation from unit magnitude is 6.44D-15 for   3012.
 Iteration    1 A*A^-1 deviation from orthogonality  is 2.28D-15 for   2398   1004.
 Iteration    1 A^-1*A deviation from unit magnitude is 6.44D-15 for   3012.
 Iteration    1 A^-1*A deviation from orthogonality  is 2.21D-13 for   2477   2398.
 E= -1261.33448494965    
 DIIS: error= 5.73D-02 at cycle   1 NSaved=   1.
 NSaved= 1 IEnMin= 1 EnMin= -1261.33448494965     IErMin= 1 ErrMin= 5.73D-02
 ErrMax= 5.73D-02  0.00D+00 EMaxC= 1.00D-01 BMatC= 3.54D+00 BMatP= 3.54D+00
 IDIUse=3 WtCom= 4.27D-01 WtEn= 5.73D-01
 Coeff-Com:  0.100D+01
 Coeff-En:   0.100D+01
 Coeff:      0.100D+01
 Gap=     0.155 Goal=   None    Shift=    0.000
 GapD=    0.155 DampG=1.000 DampE=0.500 DampFc=0.5000 IDamp=-1.
 Damping current iteration by 5.00D-01
 RMSDP=5.92D-02 MaxDP=4.29D+00              OVMax= 7.99D-01

 Cycle   2  Pass 1  IDiag  1:
 RMSU=  2.96D-02    CP:  9.91D-01
 E= -1261.34712132503     Delta-E=       -0.012636375377 Rises=F Damp=T
 DIIS: error= 2.95D-02 at cycle   2 NSaved=   2.
 NSaved= 2 IEnMin= 2 EnMin= -1261.34712132503     IErMin= 2 ErrMin= 2.95D-02
 ErrMax= 2.95D-02  0.00D+00 EMaxC= 1.00D-01 BMatC= 7.19D-01 BMatP= 3.54D+00
 IDIUse=3 WtCom= 7.05D-01 WtEn= 2.95D-01
 Coeff-Com: -0.304D+00 0.130D+01
 Coeff-En:   0.488D+00 0.512D+00
 Coeff:     -0.701D-01 0.107D+01
 Gap=     0.025 Goal=   None    Shift=    0.000
 RMSDP=4.77D-02 MaxDP=4.90D+00 DE=-1.26D-02 OVMax= 5.82D-01

 Cycle   3  Pass 1  IDiag  1:
 RMSU=  3.58D-02    CP:  8.51D-01  4.24D-02
 E= -1260.86694964237     Delta-E=        0.480171682655 Rises=F Damp=F
 DIIS: error= 3.21D-02 at cycle   3 NSaved=   3.
 NSaved= 3 IEnMin= 2 EnMin= -1261.34712132503     IErMin= 2 ErrMin= 2.95D-02
 ErrMax= 3.21D-02  0.00D+00 EMaxC= 1.00D-01 BMatC= 8.65D-01 BMatP= 7.19D-01
 IDIUse=2 WtCom= 0.00D+00 WtEn= 1.00D+00
 EnCoef did    19 forward-backward iterations
 Coeff-En:   0.192D+00 0.599D+00 0.209D+00
 Coeff:      0.192D+00 0.599D+00 0.209D+00
 Gap=     0.201 Goal=   None    Shift=    0.000
 RMSDP=4.37D-02 MaxDP=7.23D+00 DE= 4.80D-01 OVMax= 2.91D-01

 Cycle   4  Pass 1  IDiag  1:
 RMSU=  1.34D-02    CP:  7.41D-01  4.99D-01 -5.72D-02
 E= -1261.83237166606     Delta-E=       -0.965422023684 Rises=F Damp=F
 DIIS: error= 3.91D-03 at cycle   4 NSaved=   4.
 NSaved= 4 IEnMin= 4 EnMin= -1261.83237166606     IErMin= 4 ErrMin= 3.91D-03
 ErrMax= 3.91D-03  0.00D+00 EMaxC= 1.00D-01 BMatC= 3.14D-02 BMatP= 7.19D-01
 IDIUse=3 WtCom= 9.61D-01 WtEn= 3.91D-02
 Coeff-Com:  0.101D+00-0.111D+00 0.821D-02 0.100D+01
 Coeff-En:   0.000D+00 0.000D+00 0.000D+00 0.100D+01
 Coeff:      0.972D-01-0.106D+00 0.789D-02 0.100D+01
 Gap=     0.088 Goal=   None    Shift=    0.000
 RMSDP=6.21D-03 MaxDP=1.09D+00 DE=-9.65D-01 OVMax= 1.16D-01

 Cycle   5  Pass 1  IDiag  1:
 RMSU=  4.62D-03    CP:  7.73D-01  5.09D-01  6.19D-03  8.91D-01
 E= -1261.80251974627     Delta-E=        0.029851919786 Rises=F Damp=F
 DIIS: error= 7.14D-03 at cycle   5 NSaved=   5.
 NSaved= 5 IEnMin= 4 EnMin= -1261.83237166606     IErMin= 4 ErrMin= 3.91D-03
 ErrMax= 7.14D-03  0.00D+00 EMaxC= 1.00D-01 BMatC= 4.44D-02 BMatP= 3.14D-02
 IDIUse=3 WtCom= 1.06D-01 WtEn= 8.94D-01
 Coeff-Com:  0.980D-01-0.155D+00-0.179D-01 0.718D+00 0.357D+00
 Coeff-En:   0.000D+00 0.000D+00 0.000D+00 0.745D+00 0.255D+00
 Coeff:      0.104D-01-0.164D-01-0.189D-02 0.742D+00 0.265D+00
 Gap=     0.116 Goal=   None    Shift=    0.000
 RMSDP=7.50D-03 MaxDP=1.08D+00 DE= 2.99D-02 OVMax= 1.54D-01

 Cycle   6  Pass 1  IDiag  1:
 RMSU=  2.68D-03    CP:  7.40D-01  3.18D-01  2.69D-02  8.31D-01  4.88D-01
 E= -1261.83327725753     Delta-E=       -0.030757511255 Rises=F Damp=F
 DIIS: error= 3.76D-03 at cycle   6 NSaved=   6.
 NSaved= 6 IEnMin= 6 EnMin= -1261.83327725753     IErMin= 6 ErrMin= 3.76D-03
 ErrMax= 3.76D-03  0.00D+00 EMaxC= 1.00D-01 BMatC= 1.63D-02 BMatP= 3.14D-02
 IDIUse=3 WtCom= 9.62D-01 WtEn= 3.76D-02
 EnCoef did     1 forward-backward iterations
 Coeff-Com:  0.233D-01-0.249D-01-0.422D-01 0.404D+00 0.124D+00 0.516D+00
 Coeff-En:   0.000D+00 0.000D+00 0.000D+00 0.466D+00 0.708D-01 0.463D+00
 Coeff:      0.225D-01-0.240D-01-0.406D-01 0.406D+00 0.122D+00 0.514D+00
 Gap=     0.106 Goal=   None    Shift=    0.000
 RMSDP=4.69D-03 MaxDP=4.55D-01 DE=-3.08D-02 OVMax= 4.40D-02

 Cycle   7  Pass 1  IDiag  1:
 RMSU=  1.04D-03    CP:  7.37D-01  4.30D-01 -3.38D-02  9.56D-01  4.47D-01
                    CP:  4.42D-01
 E= -1261.84821860859     Delta-E=       -0.014941351063 Rises=F Damp=F
 DIIS: error= 7.70D-04 at cycle   7 NSaved=   7.
 NSaved= 7 IEnMin= 7 EnMin= -1261.84821860859     IErMin= 7 ErrMin= 7.70D-04
 ErrMax= 7.70D-04  0.00D+00 EMaxC= 1.00D-01 BMatC= 3.72D-04 BMatP= 1.63D-02
 IDIUse=3 WtCom= 9.92D-01 WtEn= 7.70D-03
 Coeff-Com: -0.365D-03 0.751D-02-0.175D-01 0.135D+00 0.246D-01 0.307D+00
 Coeff-Com:  0.544D+00
 Coeff-En:   0.000D+00 0.000D+00 0.000D+00 0.000D+00 0.000D+00 0.000D+00
 Coeff-En:   0.100D+01
 Coeff:     -0.362D-03 0.745D-02-0.174D-01 0.134D+00 0.245D-01 0.304D+00
 Coeff:      0.547D+00
 Gap=     0.106 Goal=   None    Shift=    0.000
 RMSDP=8.73D-04 MaxDP=1.38D-01 DE=-1.49D-02 OVMax= 1.01D-02

 Cycle   8  Pass 1  IDiag  1:
 RMSU=  5.41D-04    CP:  7.40D-01  4.19D-01 -2.47D-02  9.52D-01  4.52D-01
                    CP:  5.27D-01  7.16D-01
 E= -1261.84857804805     Delta-E=       -0.000359439458 Rises=F Damp=F
 DIIS: error= 2.54D-04 at cycle   8 NSaved=   8.
 NSaved= 8 IEnMin= 8 EnMin= -1261.84857804805     IErMin= 8 ErrMin= 2.54D-04
 ErrMax= 2.54D-04  0.00D+00 EMaxC= 1.00D-01 BMatC= 4.88D-05 BMatP= 3.72D-04
 IDIUse=3 WtCom= 9.97D-01 WtEn= 2.54D-03
 Coeff-Com: -0.184D-02 0.578D-02-0.380D-02 0.417D-01 0.135D-01 0.101D+00
 Coeff-Com:  0.300D+00 0.544D+00
 Coeff-En:   0.000D+00 0.000D+00 0.000D+00 0.000D+00 0.000D+00 0.000D+00
 Coeff-En:   0.111D+00 0.889D+00
 Coeff:     -0.184D-02 0.576D-02-0.379D-02 0.416D-01 0.135D-01 0.100D+00
 Coeff:      0.299D+00 0.545D+00
 Gap=     0.106 Goal=   None    Shift=    0.000
 RMSDP=2.58D-04 MaxDP=3.84D-02 DE=-3.59D-04 OVMax= 2.41D-03

 Cycle   9  Pass 1  IDiag  1:
 RMSU=  7.97D-05    CP:  7.39D-01  4.20D-01 -2.71D-02  9.51D-01  4.58D-01
                    CP:  5.03D-01  7.88D-01  6.78D-01
 E= -1261.84862317187     Delta-E=       -0.000045123820 Rises=F Damp=F
 DIIS: error= 7.85D-05 at cycle   9 NSaved=   9.
 NSaved= 9 IEnMin= 9 EnMin= -1261.84862317187     IErMin= 9 ErrMin= 7.85D-05
 ErrMax= 7.85D-05  0.00D+00 EMaxC= 1.00D-01 BMatC= 7.09D-06 BMatP= 4.88D-05
 IDIUse=1 WtCom= 1.00D+00 WtEn= 0.00D+00
 Coeff-Com: -0.680D-03 0.149D-02 0.478D-04 0.286D-02 0.725D-02 0.495D-02
 Coeff-Com:  0.904D-01 0.294D+00 0.599D+00
 Coeff:     -0.680D-03 0.149D-02 0.478D-04 0.286D-02 0.725D-02 0.495D-02
 Coeff:      0.904D-01 0.294D+00 0.599D+00
 Gap=     0.106 Goal=   None    Shift=    0.000
 RMSDP=6.87D-05 MaxDP=6.45D-03 DE=-4.51D-05 OVMax= 1.11D-03

 Cycle  10  Pass 1  IDiag  1:
 RMSU=  2.86D-05    CP:  7.39D-01  4.21D-01 -2.69D-02  9.53D-01  4.60D-01
                    CP:  5.06D-01  8.09D-01  7.28D-01  6.09D-01
 E= -1261.84863043140     Delta-E=       -0.000007259534 Rises=F Damp=F
 DIIS: error= 5.28D-05 at cycle  10 NSaved=  10.
 NSaved=10 IEnMin=10 EnMin= -1261.84863043140     IErMin=10 ErrMin= 5.28D-05
 ErrMax= 5.28D-05  0.00D+00 EMaxC= 1.00D-01 BMatC= 5.36D-07 BMatP= 7.09D-06
 IDIUse=1 WtCom= 1.00D+00 WtEn= 0.00D+00
 Coeff-Com: -0.223D-03 0.325D-03 0.109D-03-0.195D-02 0.342D-02-0.516D-02
 Coeff-Com:  0.303D-01 0.123D+00 0.327D+00 0.523D+00
 Coeff:     -0.223D-03 0.325D-03 0.109D-03-0.195D-02 0.342D-02-0.516D-02
 Coeff:      0.303D-01 0.123D+00 0.327D+00 0.523D+00
 Gap=     0.106 Goal=   None    Shift=    0.000
 RMSDP=1.96D-05 MaxDP=2.79D-03 DE=-7.26D-06 OVMax= 2.47D-04

 Cycle  11  Pass 1  IDiag  1:
 RMSU=  8.46D-06    CP:  7.39D-01  4.21D-01 -2.69D-02  9.53D-01  4.62D-01
                    CP:  5.05D-01  8.11D-01  7.34D-01  6.39D-01  7.92D-01
 E= -1261.84863097113     Delta-E=       -0.000000539725 Rises=F Damp=F
 DIIS: error= 9.58D-06 at cycle  11 NSaved=  11.
 NSaved=11 IEnMin=11 EnMin= -1261.84863097113     IErMin=11 ErrMin= 9.58D-06
 ErrMax= 9.58D-06  0.00D+00 EMaxC= 1.00D-01 BMatC= 4.64D-08 BMatP= 5.36D-07
 IDIUse=1 WtCom= 1.00D+00 WtEn= 0.00D+00
 Coeff-Com: -0.216D-04-0.429D-04 0.503D-05-0.153D-02 0.943D-03-0.354D-02
 Coeff-Com:  0.366D-02 0.230D-01 0.861D-01 0.272D+00 0.619D+00
 Coeff:     -0.216D-04-0.429D-04 0.503D-05-0.153D-02 0.943D-03-0.354D-02
 Coeff:      0.366D-02 0.230D-01 0.861D-01 0.272D+00 0.619D+00
 Gap=     0.106 Goal=   None    Shift=    0.000
 RMSDP=7.08D-06 MaxDP=9.04D-04 DE=-5.40D-07 OVMax= 7.20D-05

 Cycle  12  Pass 1  IDiag  1:
 RMSU=  2.03D-06    CP:  7.39D-01  4.21D-01 -2.69D-02  9.53D-01  4.63D-01
                    CP:  5.04D-01  8.13D-01  7.38D-01  6.66D-01  7.77D-01
                    CP:  8.93D-01
 E= -1261.84863102216     Delta-E=       -0.000000051031 Rises=F Damp=F
 DIIS: error= 3.13D-06 at cycle  12 NSaved=  12.
 NSaved=12 IEnMin=12 EnMin= -1261.84863102216     IErMin=12 ErrMin= 3.13D-06
 ErrMax= 3.13D-06  0.00D+00 EMaxC= 1.00D-01 BMatC= 2.64D-09 BMatP= 4.64D-08
 IDIUse=1 WtCom= 1.00D+00 WtEn= 0.00D+00
 Coeff-Com: -0.861D-05-0.306D-05 0.986D-05-0.434D-03 0.198D-03-0.958D-03
 Coeff-Com: -0.438D-03 0.685D-03 0.988D-02 0.726D-01 0.271D+00 0.647D+00
 Coeff:     -0.861D-05-0.306D-05 0.986D-05-0.434D-03 0.198D-03-0.958D-03
 Coeff:     -0.438D-03 0.685D-03 0.988D-02 0.726D-01 0.271D+00 0.647D+00
 Gap=     0.106 Goal=   None    Shift=    0.000
 RMSDP=1.25D-06 MaxDP=1.44D-04 DE=-5.10D-08 OVMax= 1.76D-05

 Cycle  13  Pass 1  IDiag  1:
 RMSU=  8.53D-07    CP:  7.39D-01  4.21D-01 -2.69D-02  9.53D-01  4.63D-01
                    CP:  5.04D-01  8.13D-01  7.39D-01  6.68D-01  7.97D-01
                    CP:  9.25D-01  9.52D-01
 E= -1261.84863102450     Delta-E=       -0.000000002339 Rises=F Damp=F
 DIIS: error= 1.18D-06 at cycle  13 NSaved=  13.
 NSaved=13 IEnMin=13 EnMin= -1261.84863102450     IErMin=13 ErrMin= 1.18D-06
 ErrMax= 1.18D-06  0.00D+00 EMaxC= 1.00D-01 BMatC= 4.70D-10 BMatP= 2.64D-09
 IDIUse=1 WtCom= 1.00D+00 WtEn= 0.00D+00
 Coeff-Com: -0.972D-06 0.260D-05 0.275D-05-0.210D-04-0.656D-05-0.346D-04
 Coeff-Com: -0.722D-03-0.267D-02-0.696D-02 0.177D-02 0.634D-01 0.353D+00
 Coeff-Com:  0.592D+00
 Coeff:     -0.972D-06 0.260D-05 0.275D-05-0.210D-04-0.656D-05-0.346D-04
 Coeff:     -0.722D-03-0.267D-02-0.696D-02 0.177D-02 0.634D-01 0.353D+00
 Coeff:      0.592D+00
 Gap=     0.106 Goal=   None    Shift=    0.000
 RMSDP=4.82D-07 MaxDP=5.14D-05 DE=-2.34D-09 OVMax= 6.16D-06

 Cycle  14  Pass 1  IDiag  1:
 RMSU=  2.92D-07    CP:  7.39D-01  4.21D-01 -2.69D-02  9.53D-01  4.63D-01
                    CP:  5.04D-01  8.13D-01  7.39D-01  6.66D-01  8.02D-01
                    CP:  9.31D-01  9.30D-01  8.63D-01
 E= -1261.84863102495     Delta-E=       -0.000000000450 Rises=F Damp=F
 DIIS: error= 2.08D-07 at cycle  14 NSaved=  14.
 NSaved=14 IEnMin=14 EnMin= -1261.84863102495     IErMin=14 ErrMin= 2.08D-07
 ErrMax= 2.08D-07  0.00D+00 EMaxC= 1.00D-01 BMatC= 4.31D-11 BMatP= 4.70D-10
 IDIUse=1 WtCom= 1.00D+00 WtEn= 0.00D+00
 Coeff-Com:  0.131D-05-0.150D-05-0.859D-06 0.134D-04-0.190D-04 0.368D-04
 Coeff-Com: -0.370D-03-0.143D-02-0.451D-02-0.515D-02 0.112D-01 0.132D+00
 Coeff-Com:  0.301D+00 0.567D+00
 Coeff:      0.131D-05-0.150D-05-0.859D-06 0.134D-04-0.190D-04 0.368D-04
 Coeff:     -0.370D-03-0.143D-02-0.451D-02-0.515D-02 0.112D-01 0.132D+00
 Coeff:      0.301D+00 0.567D+00
 Gap=     0.106 Goal=   None    Shift=    0.000
 RMSDP=2.52D-07 MaxDP=2.50D-05 DE=-4.50D-10 OVMax= 2.25D-06

 Cycle  15  Pass 1  IDiag  1:
 RMSU=  1.12D-07    CP:  7.39D-01  4.21D-01 -2.69D-02  9.53D-01  4.63D-01
                    CP:  5.04D-01  8.14D-01  7.39D-01  6.66D-01  8.02D-01
                    CP:  9.31D-01  9.56D-01  8.33D-01  9.37D-01
 E= -1261.84863102497     Delta-E=       -0.000000000021 Rises=F Damp=F
 DIIS: error= 8.32D-08 at cycle  15 NSaved=  15.
 NSaved=15 IEnMin=15 EnMin= -1261.84863102497     IErMin=15 ErrMin= 8.32D-08
 ErrMax= 8.32D-08  0.00D+00 EMaxC= 1.00D-01 BMatC= 3.43D-12 BMatP= 4.31D-11
 IDIUse=1 WtCom= 1.00D+00 WtEn= 0.00D+00
 Coeff-Com:  0.261D-06 0.441D-07-0.569D-06 0.887D-05-0.678D-05 0.251D-04
 Coeff-Com: -0.903D-04-0.398D-03-0.150D-02-0.274D-02-0.908D-03 0.289D-01
 Coeff-Com:  0.867D-01 0.282D+00 0.608D+00
 Coeff:      0.261D-06 0.441D-07-0.569D-06 0.887D-05-0.678D-05 0.251D-04
 Coeff:     -0.903D-04-0.398D-03-0.150D-02-0.274D-02-0.908D-03 0.289D-01
 Coeff:      0.867D-01 0.282D+00 0.608D+00
 Gap=     0.106 Goal=   None    Shift=    0.000
 RMSDP=5.64D-08 MaxDP=6.14D-06 DE=-2.14D-11 OVMax= 1.04D-06

 Cycle  16  Pass 1  IDiag  1:
 RMSU=  2.39D-08    CP:  7.39D-01  4.21D-01 -2.69D-02  9.53D-01  4.63D-01
                    CP:  5.04D-01  8.14D-01  7.39D-01  6.66D-01  8.02D-01
                    CP:  9.32D-01  9.62D-01  8.38D-01  1.00D+00  9.81D-01
 E= -1261.84863102488     Delta-E=        0.000000000090 Rises=F Damp=F
 DIIS: error= 2.66D-08 at cycle  16 NSaved=  16.
 NSaved=16 IEnMin=15 EnMin= -1261.84863102497     IErMin=16 ErrMin= 2.66D-08
 ErrMax= 2.66D-08  0.00D+00 EMaxC= 1.00D-01 BMatC= 6.20D-13 BMatP= 3.43D-12
 IDIUse=1 WtCom= 1.00D+00 WtEn= 0.00D+00
 Coeff-Com:  0.719D-07 0.573D-07-0.104D-06 0.369D-05-0.693D-06 0.806D-05
 Coeff-Com: -0.499D-05-0.467D-04-0.276D-03-0.906D-03-0.222D-02-0.207D-02
 Coeff-Com:  0.721D-02 0.794D-01 0.338D+00 0.581D+00
 Coeff:      0.719D-07 0.573D-07-0.104D-06 0.369D-05-0.693D-06 0.806D-05
 Coeff:     -0.499D-05-0.467D-04-0.276D-03-0.906D-03-0.222D-02-0.207D-02
 Coeff:      0.721D-02 0.794D-01 0.338D+00 0.581D+00
 Gap=     0.106 Goal=   None    Shift=    0.000
 RMSDP=2.91D-08 MaxDP=3.65D-06 DE= 9.05D-11 OVMax= 2.10D-07

 Cycle  17  Pass 1  IDiag  1:
 RMSU=  1.12D-08    CP:  7.39D-01  4.21D-01 -2.69D-02  9.53D-01  4.63D-01
                    CP:  5.04D-01  8.14D-01  7.39D-01  6.66D-01  8.02D-01
                    CP:  9.33D-01  9.65D-01  8.56D-01  9.89D-01  9.98D-01
                    CP:  9.17D-01
 E= -1261.84863102483     Delta-E=        0.000000000043 Rises=F Damp=F
 DIIS: error= 5.35D-09 at cycle  17 NSaved=  17.
 NSaved=17 IEnMin=15 EnMin= -1261.84863102497     IErMin=17 ErrMin= 5.35D-09
 ErrMax= 5.35D-09  0.00D+00 EMaxC= 1.00D-01 BMatC= 2.68D-14 BMatP= 6.20D-13
 IDIUse=1 WtCom= 1.00D+00 WtEn= 0.00D+00
 Coeff-Com:  0.618D-07-0.857D-07-0.272D-07 0.101D-05 0.377D-06 0.140D-05
 Coeff-Com:  0.424D-05 0.414D-05-0.177D-04-0.169D-03-0.821D-03-0.280D-02
 Coeff-Com: -0.353D-02 0.103D-01 0.910D-01 0.208D+00 0.698D+00
 Coeff:      0.618D-07-0.857D-07-0.272D-07 0.101D-05 0.377D-06 0.140D-05
 Coeff:      0.424D-05 0.414D-05-0.177D-04-0.169D-03-0.821D-03-0.280D-02
 Coeff:     -0.353D-02 0.103D-01 0.910D-01 0.208D+00 0.698D+00
 Gap=     0.106 Goal=   None    Shift=    0.000
 RMSDP=5.89D-09 MaxDP=8.19D-07 DE= 4.27D-11 OVMax= 6.80D-08

 Error on total polarization charges =  0.02198
 SCF Done:  E(RN12SX) =  -1261.84863102     A.U. after   17 cycles
            NFock= 17  Conv=0.59D-08     -V/T= 2.0049
 KE= 1.255733928719D+03 PE=-6.624141728158D+03 EE= 2.269803299757D+03
 Leave Link  502 at Sun Nov 14 13:58:41 2021, MaxMem=  6710886400 cpu:      6947.2
 (Enter /usr/local/gqt/g09/l601.exe)
 Copying SCF densities to generalized density rwf, IOpCl= 0 IROHF=0.

 **********************************************************************

            Population analysis using the SCF density.

 **********************************************************************

 Orbital symmetries:
       Occupied  (A) (A) (A) (A) (A) (A) (A) (A) (A) (A) (A) (A)
                 (A) (A) (A) (A) (A) (A) (A) (A) (A) (A) (A) (A)
                 (A) (A) (A) (A) (A) (A) (A) (A) (A) (A) (A) (A)
                 (A) (A) (A) (A) (A) (A) (A) (A) (A) (A) (A) (A)
                 (A) (A) (A) (A) (A) (A) (A) (A) (A) (A) (A) (A)
                 (A) (A) (A) (A) (A) (A) (A) (A) (A) (A) (A) (A)
                 (A) (A) (A) (A) (A) (A) (A) (A) (A) (A)
       Virtual   (A) (A) (A) (A) (A) (A) (A) (A) (A) (A) (A) (A)
                 (A) (A) (A) (A) (A) (A) (A) (A) (A) (A) (A) (A)
                 (A) (A) (A) (A) (A) (A) (A) (A) (A) (A) (A) (A)
                 (A) (A) (A) (A) (A) (A) (A) (A) (A) (A) (A) (A)
                 (A) (A) (A) (A) (A) (A) (A) (A) (A) (A) (A) (A)
                 (A) (A) (A) (A) (A) (A) (A) (A) (A) (A) (A) (A)
                 (A) (A) (A) (A) (A) (A) (A) (A) (A) (A) (A) (A)
                 (A) (A) (A) (A) (A) (A) (A) (A) (A) (A) (A) (A)
                 (A) (A) (A) (A) (A) (A) (A) (A) (A) (A) (A) (A)
                 (A) (A) (A) (A) (A) (A) (A) (A) (A) (A) (A) (A)
                 (A) (A) (A) (A) (A) (A) (A) (A) (A) (A) (A) (A)
                 (A) (A) (A) (A) (A) (A) (A) (A) (A) (A) (A) (A)
                 (A) (A) (A) (A) (A) (A) (A) (A) (A) (A) (A) (A)
                 (A) (A) (A) (A) (A) (A) (A) (A) (A) (A) (A) (A)
                 (A) (A) (A) (A) (A) (A) (A) (A) (A) (A) (A) (A)
                 (A) (A) (A) (A) (A) (A) (A) (A) (A) (A) (A) (A)
                 (A) (A) (A) (A) (A) (A) (A) (A) (A) (A) (A) (A)
                 (A) (A) (A) (A) (A) (A) (A) (A) (A) (A) (A) (A)
                 (A) (A) (A) (A) (A) (A) (A) (A) (A) (A) (A) (A)
                 (A) (A) (A) (A) (A) (A) (A) (A) (A) (A) (A) (A)
                 (A) (A) (A) (A) (A) (A) (A) (A) (A) (A) (A) (A)
                 (A) (A) (A) (A) (A) (A) (A) (A) (A) (A) (A) (A)
                 (A) (A) (A) (A) (A) (A) (A) (A) (A) (A) (A) (A)
                 (A) (A) (A) (A) (A) (A) (A) (A) (A) (A) (A) (A)
                 (A) (A) (A) (A) (A) (A) (A) (A) (A) (A) (A) (A)
                 (A) (A) (A) (A) (A) (A) (A) (A) (A) (A) (A) (A)
                 (A) (A) (A) (A) (A) (A) (A) (A) (A) (A) (A) (A)
                 (A) (A) (A) (A) (A) (A) (A) (A) (A) (A) (A) (A)
                 (A) (A) (A) (A) (A) (A) (A) (A) (A) (A) (A) (A)
                 (A) (A) (A) (A) (A) (A) (A) (A) (A) (A) (A) (A)
                 (A) (A) (A) (A) (A) (A) (A) (A) (A) (A) (A) (A)
                 (A) (A) (A) (A) (A) (A) (A) (A) (A) (A) (A) (A)
                 (A) (A) (A) (A) (A) (A) (A) (A) (A) (A) (A) (A)
                 (A) (A) (A) (A) (A) (A) (A) (A) (A) (A) (A) (A)
                 (A) (A) (A) (A) (A) (A) (A) (A) (A) (A) (A) (A)
                 (A) (A) (A) (A) (A) (A) (A) (A) (A) (A) (A) (A)
                 (A) (A) (A) (A) (A) (A) (A) (A) (A) (A) (A) (A)
                 (A) (A) (A) (A) (A) (A) (A) (A) (A) (A) (A) (A)
                 (A) (A) (A) (A) (A) (A) (A) (A) (A) (A) (A) (A)
                 (A) (A) (A) (A) (A) (A) (A) (A) (A) (A) (A) (A)
                 (A) (A) (A) (A) (A) (A) (A) (A) (A) (A) (A) (A)
                 (A) (A) (A) (A) (A) (A) (A) (A) (A) (A) (A) (A)
                 (A) (A) (A) (A) (A) (A) (A) (A) (A) (A) (A) (A)
                 (A) (A)
 The electronic state is 1-A.
 Alpha  occ. eigenvalues --  -89.18324 -14.46022 -10.32635 -10.29455 -10.26618
 Alpha  occ. eigenvalues --  -10.24726 -10.24716 -10.24554 -10.24308 -10.24208
 Alpha  occ. eigenvalues --  -10.24183 -10.24148 -10.24119 -10.24106 -10.23957
 Alpha  occ. eigenvalues --  -10.22935 -10.22926 -10.22701 -10.22699 -10.22461
 Alpha  occ. eigenvalues --  -10.22248 -10.21899 -10.21150  -7.89464  -5.93387
 Alpha  occ. eigenvalues --   -5.93080  -5.92941  -1.00349  -0.90613  -0.88111
 Alpha  occ. eigenvalues --   -0.86949  -0.85266  -0.80735  -0.76992  -0.76432
 Alpha  occ. eigenvalues --   -0.76210  -0.75641  -0.74594  -0.70635  -0.64998
 Alpha  occ. eigenvalues --   -0.63812  -0.62665  -0.62061  -0.61268  -0.60329
 Alpha  occ. eigenvalues --   -0.57653  -0.56043  -0.54958  -0.51835  -0.50382
 Alpha  occ. eigenvalues --   -0.49154  -0.48481  -0.47328  -0.46816  -0.45592
 Alpha  occ. eigenvalues --   -0.45320  -0.44099  -0.43417  -0.43168  -0.42976
 Alpha  occ. eigenvalues --   -0.42451  -0.41332  -0.41143  -0.40138  -0.38193
 Alpha  occ. eigenvalues --   -0.37662  -0.37461  -0.37211  -0.35785  -0.35427
 Alpha  occ. eigenvalues --   -0.35210  -0.34185  -0.33601  -0.31582  -0.29664
 Alpha  occ. eigenvalues --   -0.26821  -0.26736  -0.26462  -0.26244  -0.25184
 Alpha  occ. eigenvalues --   -0.21048  -0.19636
 Alpha virt. eigenvalues --   -0.09069  -0.04961  -0.04254  -0.03916  -0.03262
 Alpha virt. eigenvalues --   -0.03009  -0.01569  -0.01397  -0.00201   0.00010
 Alpha virt. eigenvalues --    0.00332   0.00794   0.01273   0.01632   0.02226
 Alpha virt. eigenvalues --    0.02411   0.02931   0.03153   0.03246   0.03500
 Alpha virt. eigenvalues --    0.04139   0.04376   0.04811   0.05224   0.05452
 Alpha virt. eigenvalues --    0.05634   0.06341   0.06594   0.07129   0.07329
 Alpha virt. eigenvalues --    0.07444   0.08081   0.08104   0.08581   0.08722
 Alpha virt. eigenvalues --    0.09441   0.09627   0.10118   0.10663   0.10666
 Alpha virt. eigenvalues --    0.11024   0.11479   0.11650   0.12070   0.12238
 Alpha virt. eigenvalues --    0.12887   0.13311   0.13362   0.13509   0.13601
 Alpha virt. eigenvalues --    0.13979   0.14101   0.14493   0.14860   0.15049
 Alpha virt. eigenvalues --    0.15258   0.15324   0.15652   0.15761   0.16038
 Alpha virt. eigenvalues --    0.16576   0.17190   0.17410   0.17589   0.17790
 Alpha virt. eigenvalues --    0.17924   0.18388   0.18614   0.18910   0.19042
 Alpha virt. eigenvalues --    0.19307   0.19574   0.19679   0.19858   0.20126
 Alpha virt. eigenvalues --    0.20251   0.20571   0.20836   0.21133   0.21207
 Alpha virt. eigenvalues --    0.21439   0.21586   0.21720   0.22188   0.22576
 Alpha virt. eigenvalues --    0.22832   0.23050   0.23087   0.23339   0.23665
 Alpha virt. eigenvalues --    0.24064   0.24247   0.24407   0.24845   0.25154
 Alpha virt. eigenvalues --    0.25319   0.25787   0.26054   0.26367   0.26489
 Alpha virt. eigenvalues --    0.27051   0.27180   0.27754   0.28057   0.28179
 Alpha virt. eigenvalues --    0.28537   0.28704   0.29242   0.30198   0.30308
 Alpha virt. eigenvalues --    0.30983   0.31229   0.31288   0.31346   0.31678
 Alpha virt. eigenvalues --    0.32056   0.32375   0.32473   0.33490   0.33611
 Alpha virt. eigenvalues --    0.34187   0.34556   0.35182   0.35416   0.36328
 Alpha virt. eigenvalues --    0.36745   0.37455   0.38225   0.39125   0.40328
 Alpha virt. eigenvalues --    0.40613   0.40773   0.42264   0.43701   0.45202
 Alpha virt. eigenvalues --    0.45273   0.46986   0.49396   0.49712   0.51429
 Alpha virt. eigenvalues --    0.51580   0.51971   0.52353   0.52528   0.52852
 Alpha virt. eigenvalues --    0.52993   0.53265   0.53621   0.54049   0.54259
 Alpha virt. eigenvalues --    0.54518   0.54787   0.55247   0.55499   0.56087
 Alpha virt. eigenvalues --    0.56577   0.57430   0.58165   0.58430   0.58765
 Alpha virt. eigenvalues --    0.59680   0.59752   0.60859   0.61383   0.61722
 Alpha virt. eigenvalues --    0.62249   0.62601   0.63289   0.64245   0.64688
 Alpha virt. eigenvalues --    0.65054   0.65544   0.66161   0.66361   0.66810
 Alpha virt. eigenvalues --    0.67927   0.68093   0.68624   0.69189   0.69563
 Alpha virt. eigenvalues --    0.69813   0.69958   0.70154   0.70875   0.71047
 Alpha virt. eigenvalues --    0.71696   0.72125   0.72511   0.72686   0.72865
 Alpha virt. eigenvalues --    0.73644   0.74495   0.75112   0.75855   0.76615
 Alpha virt. eigenvalues --    0.77204   0.77485   0.77570   0.78525   0.79107
 Alpha virt. eigenvalues --    0.79264   0.79707   0.80706   0.82288   0.82652
 Alpha virt. eigenvalues --    0.82723   0.82998   0.83041   0.83880   0.84163
 Alpha virt. eigenvalues --    0.84523   0.84855   0.85058   0.85993   0.86258
 Alpha virt. eigenvalues --    0.86477   0.87755   0.88052   0.88424   0.89077
 Alpha virt. eigenvalues --    0.90133   0.91037   0.91529   0.92134   0.92204
 Alpha virt. eigenvalues --    0.93069   0.94285   0.95656   0.97047   0.97640
 Alpha virt. eigenvalues --    0.97809   0.98739   0.99237   1.00070   1.01021
 Alpha virt. eigenvalues --    1.01998   1.02207   1.03324   1.03418   1.04127
 Alpha virt. eigenvalues --    1.04219   1.05057   1.05662   1.06000   1.06936
 Alpha virt. eigenvalues --    1.07261   1.07444   1.08795   1.09226   1.10297
 Alpha virt. eigenvalues --    1.10899   1.11196   1.11805   1.12238   1.12960
 Alpha virt. eigenvalues --    1.14196   1.15395   1.17253   1.17996   1.18580
 Alpha virt. eigenvalues --    1.20361   1.21637   1.22018   1.25790   1.29650
 Alpha virt. eigenvalues --    1.30258   1.31795   1.32366   1.33827   1.36775
 Alpha virt. eigenvalues --    1.39990   1.43955   1.44165   1.46868   1.48531
 Alpha virt. eigenvalues --    1.49265   1.49932   1.50040   1.50460   1.50820
 Alpha virt. eigenvalues --    1.52050   1.52886   1.53117   1.54200   1.54732
 Alpha virt. eigenvalues --    1.55315   1.55780   1.55883   1.56263   1.56777
 Alpha virt. eigenvalues --    1.57160   1.57470   1.58145   1.59095   1.59489
 Alpha virt. eigenvalues --    1.62141   1.63355   1.64379   1.64546   1.65375
 Alpha virt. eigenvalues --    1.65406   1.66030   1.66324   1.67116   1.69160
 Alpha virt. eigenvalues --    1.70948   1.71725   1.72727   1.73066   1.73328
 Alpha virt. eigenvalues --    1.74161   1.74570   1.76208   1.76838   1.76938
 Alpha virt. eigenvalues --    1.78670   1.78951   1.80340   1.81450   1.81854
 Alpha virt. eigenvalues --    1.82227   1.82249   1.83225   1.85630   1.86092
 Alpha virt. eigenvalues --    1.87320   1.87784   1.88551   1.88858   1.89940
 Alpha virt. eigenvalues --    1.91230   1.91895   1.92351   1.92753   1.93219
 Alpha virt. eigenvalues --    1.93626   1.93981   1.94765   1.95029   1.95563
 Alpha virt. eigenvalues --    1.96598   1.97859   1.98050   1.98729   1.99208
 Alpha virt. eigenvalues --    2.00155   2.00510   2.01097   2.01947   2.03241
 Alpha virt. eigenvalues --    2.05444   2.05578   2.06825   2.07655   2.08279
 Alpha virt. eigenvalues --    2.08506   2.09522   2.10729   2.11572   2.13416
 Alpha virt. eigenvalues --    2.14675   2.18135   2.18916   2.24704   2.26180
 Alpha virt. eigenvalues --    2.28560   2.30269   2.31880   2.33788   2.34451
 Alpha virt. eigenvalues --    2.35200   2.35713   2.37481   2.38487   2.39045
 Alpha virt. eigenvalues --    2.39795   2.40327   2.40593   2.41390   2.41505
 Alpha virt. eigenvalues --    2.41995   2.42575   2.44159   2.44845   2.45790
 Alpha virt. eigenvalues --    2.46423   2.56237   2.59975   2.61300   2.62747
 Alpha virt. eigenvalues --    2.63116   2.64688   2.65149   2.65979   2.66894
 Alpha virt. eigenvalues --    2.67299   2.67597   2.69558   2.70454   2.71208
 Alpha virt. eigenvalues --    2.71572   2.71764   2.72121   2.73518   2.74306
 Alpha virt. eigenvalues --    2.75591   2.76195   2.76689   2.77124   2.77308
 Alpha virt. eigenvalues --    2.77615   2.78183   2.79036   2.79722   2.79868
 Alpha virt. eigenvalues --    2.80185   2.81739   2.82166   2.83342   2.83632
 Alpha virt. eigenvalues --    2.84525   2.85053   2.85696   2.86124   2.87775
 Alpha virt. eigenvalues --    2.88339   2.88962   2.89898   2.90921   2.91327
 Alpha virt. eigenvalues --    2.91578   2.92256   2.92948   2.94017   2.96431
 Alpha virt. eigenvalues --    2.99247   3.00016   3.01982   3.03827   3.06444
 Alpha virt. eigenvalues --    3.07319   3.09349   3.10823   3.14531   3.17844
 Alpha virt. eigenvalues --    3.21608   3.21715   3.30747   3.32394   3.33903
 Alpha virt. eigenvalues --    3.34577   3.35753   3.36837   3.38021   3.39406
 Alpha virt. eigenvalues --    3.43904   3.45649   3.46414   3.49215   3.50377
 Alpha virt. eigenvalues --    3.52542   3.52783   3.53026   3.56954   3.60678
 Alpha virt. eigenvalues --    3.62946   3.63738   3.66941   3.68869   3.84647
 Alpha virt. eigenvalues --    3.93855   3.94214   3.95492   3.97866   3.98335
 Alpha virt. eigenvalues --    3.99111   4.01409   4.03924   4.07833   4.12208
 Alpha virt. eigenvalues --    4.13681   4.14756   4.15786   4.17300   4.22073
 Alpha virt. eigenvalues --    4.42287   4.82453   4.83200   4.83671   4.87130
 Alpha virt. eigenvalues --    5.01592   8.16422  17.12192  17.39886  17.41993
 Alpha virt. eigenvalues --   23.44201  23.49964  23.53843  23.62243  23.73195
 Alpha virt. eigenvalues --   23.82310  23.82771  23.83458  23.83679  23.85395
 Alpha virt. eigenvalues --   23.92779  23.93514  23.95086  23.96343  23.96594
 Alpha virt. eigenvalues --   23.98408  24.02640  24.06110  24.06294  24.08569
 Alpha virt. eigenvalues --   24.23602  35.32183 188.39469
          Condensed to atoms (all electrons):
               1          2          3          4          5          6
     1  C   16.337617  -0.322816   0.933212  -3.538031  -0.371962  -0.478478
[...]
 451,-0.00000192,0.00000671,-0.00000636,0.00000548,-0.00000457,-0.00000
 269,-0.00000289,0.00000046,-0.00000177,-0.00000283,-0.00000203,0.00000
 179,-0.00000352,0.00000063,0.00000130,0.00000333,0.00000210,0.00944625
 ,0.01309997,0.01295809,-0.00187851,0.00084148,0.00346905,-0.09890413,-
 0.07832321,-0.06841469,-0.00090055,0.00036272,0.00027785,-0.00594493,-
 0.02071971,-0.01987574,-0.00479592,-0.00171608,0.00196829,0.00041572,0
 .00063328,0.00067429,0.10045362,0.00072610,-0.00012652,-0.00007743,-0.
 00092575,-0.00231429,0.00290800,-0.00036888,0.00071420,0.00011512,0.00
 035835,-0.00012002,-0.00001860,-0.00001540,0.00004710,0.00005449,-0.00
 000755,-0.00000870,0.00000640,0.00000011,0.00000452,-0.00000161,-0.000
 01042,-0.00000567,0.00000379,-0.00000460,-0.00000456,-0.00000059,0.000
 00189,-0.00001723,-0.00000453,-0.00000155,0.00008011,0.00006724,0.0000
 4197,-0.00004079,-0.00011138,-0.00003547,0.00004305,0.00003903,0.00000
 696,0.00000189,-0.00001140,-0.00000838,0.00000149,0.00000671,0.0000004
 9,0.00001307,0.00001369,0.00000998,0.00001386,-0.00000134,-0.00000011,
 -0.00000311,0.00000035,-0.00000128,-0.00000105,0.,-0.00000275,-0.00000
 217,0.00000043,0.00000008,0.00000493,0.00000002,0.00001878,-0.00009964
 ,0.00004606,0.00000145,-0.00000157,-0.00000049,-0.00000164,0.00000547,
 0.00000405,-0.00000285,0.00000100,-0.00000175,-0.00000350,0.00000108,0
 .00000250,-0.00752298,-0.00525878,-0.00824655,0.00144020,0.00285495,-0
 .00370943,-0.07697469,-0.18309733,-0.13682733,0.00047469,-0.00036734,0
 .00077970,-0.00051689,0.00009094,-0.00401577,-0.00171973,0.00468292,-0
 .00249630,-0.00037095,-0.00011044,-0.00045798,0.08476469,0.18550423,-0
 .00028697,-0.00016583,0.00007118,-0.00122408,0.00193421,-0.00113458,-0
 .00028682,-0.00009276,0.00094949,-0.00000712,0.00026976,-0.00009207,0.
 00007178,0.00007199,-0.00000334,-0.00001109,-0.00004267,-0.00001484,-0
 .00000853,0.00001208,0.00001283,-0.00001351,-0.00002651,0.00000862,0.0
 0000531,0.00000233,-0.00000423,-0.00002464,-0.00001706,0.00000712,-0.0
 0002508,-0.00003650,-0.00002066,0.00002976,-0.00001562,0.00004232,0.00
 001962,0.00000971,-0.00000135,0.00000512,0.00000168,-0.00001655,-0.000
 00325,-0.00001179,0.00000176,0.00000811,0.00004017,0.00000765,-0.00001
 755,0.00001859,0.00000048,0.00000045,-0.00000589,-0.00000014,-0.000003
 65,-0.00000293,-0.00000117,-0.00000496,-0.00000127,0.00000208,0.000004
 44,0.00000276,-0.00000182,0.00000243,-0.00003728,-0.00001429,0.0000007
 4,0.00000265,-0.00000005,-0.00000110,-0.00000244,-0.00000377,0.0000007
 4,0.00000172,0.00000085,0.00000241,-0.00000538,-0.00000517,-0.00954801
 ,-0.01437904,-0.00825948,0.00384131,-0.00377296,0.00086442,-0.06690522
 ,-0.13544577,-0.16601721,0.00042232,0.00085777,-0.00041599,0.00236830,
 0.00168262,0.00507115,0.00160233,-0.00274357,0.00421991,-0.00039852,-0
 .00071630,-0.00029553,0.07152431,0.14948840,0.16704735,0.00040310,-0.0
 0041344,0.00005191,-0.00078654,-0.00107187,-0.00098268,-0.00025274,0.0
 0014514,-0.00011917,-0.00014277,-0.00006875,0.00008585,0.00001343,0.00
 006582,-0.00001130,-0.00001407,-0.00002621,0.00000692,0.00000290,0.000
 00423,-0.00000035,-0.00001373,-0.00001502,0.00000533,0.00000138,-0.000
 00223,-0.00000149,-0.00002582,-0.00002622,0.00000913,0.00000504,-0.000
 00066,-0.00001364,-0.00003188,0.00001635,-0.00002563,0.00000176,0.0000
 0247,0.00000780,-0.00000139,0.00002407,0.00000480,0.00000607,0.0000207
 0,-0.00000270,0.00002942,-0.00001600,-0.00002645,-0.00000170,0.0000062
 8,0.00000023,-0.00000022,-0.00000497,0.00000002,-0.00000155,-0.0000025
 3,0.00000026,-0.00000456,-0.00000230,0.00000145,0.00000831,0.00000045,
 -0.00000365,-0.00000951,-0.00000287,0.00003160,0.00000359,0.00000603,-
 0.00000599,-0.00000225,0.00000512,-0.00000147,-0.00000329,0.00000728,-
 0.00000062,-0.00000372,-0.00000489,-0.00000117,-0.00398186,-0.00120908
 ,0.00187474,-0.00741162,-0.02106916,-0.02066568,-0.00096551,0.00041049
 ,0.00039722,-0.09724345,-0.07435128,-0.06646637,-0.00153005,0.00094402
 ,0.00362495,0.01075646,0.01388194,0.01363745,0.00109064,0.00106746,-0.
 00047680,0.00007039,0.00007580,-0.00018464,0.09920720,0.00014062,-0.00
 015776,0.00007004,-0.00008026,0.00002650,-0.00026547,-0.00001240,0.000
 15031,-0.00007506,-0.00002406,-0.00002554,-0.00001977,0.00001159,0.000
 03326,0.00000226,-0.00000859,-0.00001173,0.00000235,0.00000163,0.00000
 111,-0.00000136,-0.00000681,-0.00000718,0.00000223,0.00000041,-0.00000
 051,-0.00000057,-0.00000911,-0.00001189,0.00000236,0.00002789,-0.00002
 842,0.00001334,-0.00001469,0.00000692,-0.00000094,-0.00000713,-0.00000
 426,-0.00001151,-0.00000304,0.00000607,-0.00000570,-0.00000578,0.00000
 249,0.00000607,0.00000812,0.00001564,-0.00000389,0.00000059,0.00000346
 ,0.00000080,-0.00000017,-0.00000259,-0.00000025,-0.00000065,-0.0000012
 4,0.00000050,-0.00000226,-0.00000119,0.00000051,0.00000390,0.00000097,
 -0.00000143,0.00001274,-0.00000865,0.00002324,0.00000324,0.00000506,-0
 .00000020,0.00000233,0.00000263,0.00000187,0.00000011,0.00000376,0.000
 00102,-0.00000252,-0.00000315,-0.00000104,-0.00162600,0.00477675,-0.00
 249425,-0.00055190,-0.00053269,-0.00492369,0.00038053,-0.00054056,0.00
 077897,-0.07470653,-0.17800804,-0.13522393,0.00130304,0.00382647,-0.00
 442136,-0.00657899,-0.00451393,-0.00772635,0.00064874,-0.00200974,0.00
 245913,0.00008733,-0.00049347,0.00041149,0.08069773,0.17977958,0.00009
 898,-0.00011364,-0.00005508,0.00011089,0.00000831,0.00020758,-0.000105
 60,-0.00002745,0.00001003,-0.00002874,-0.00001727,0.00001072,0.0000022
 6,0.00001480,-0.00000780,-0.00000270,-0.00000822,-0.00000001,0.0000000
 9,0.00000152,0.00000184,-0.00000383,-0.00000414,0.00000212,0.00000009,
 -0.00000088,-0.00000159,-0.00000336,-0.00000452,0.00000568,-0.00004675
 ,0.00004915,-0.00001074,-0.00001877,0.00000185,-0.00002786,0.00000164,
 -0.00001585,0.00001325,-0.00000958,0.00002214,0.00002253,0.00001162,0.
 00002537,-0.00001599,0.00002096,-0.00004410,-0.00002021,-0.00000117,0.
 00000200,-0.00000047,0.00000012,-0.00000118,0.00000014,-0.00000060,-0.
 00000064,-0.00000012,-0.00000124,-0.00000050,0.00000026,0.00000141,0.0
 0000015,-0.00000078,0.00000125,-0.00000384,0.00001815,0.00000013,0.000
 00023,-0.00000567,-0.00000276,0.00000235,-0.00000090,-0.00000260,0.000
 00225,-0.00000145,0.00000050,-0.00000077,0.00000149,0.00171120,-0.0023
 9460,0.00419582,0.00244315,0.00107111,0.00447257,0.00046461,0.00087674
 ,-0.00047373,-0.06645126,-0.13548112,-0.17234093,0.00395958,-0.0043706
 3,0.00118073,-0.00970444,-0.01344809,-0.00821153,-0.00080153,0.0023623
 9,-0.00147517,-0.00019856,0.00036948,-0.00040229,0.06967151,0.14915648
 ,0.17460606,0.00021723,-0.00054018,0.00017008,-0.00119980,0.00100172,0
 .00095411,-0.00001872,0.00021218,-0.00007327,-0.00006840,-0.00002399,0
 .00000462,0.00002537,0.00005243,-0.00002020,-0.00001799,-0.00002689,0.
 00000542,0.00000297,0.00000349,-0.00000079,-0.00001468,-0.00001538,0.0
 0000552,0.00000258,-0.00000362,-0.00000163,-0.00002080,-0.00001857,0.0
 0001111,-0.00000147,0.00003952,0.00001509,-0.00005415,0.00002276,-0.00
 003187,-0.00000869,-0.00000779,0.00000823,-0.00000781,0.00003011,0.000
 01067,0.00000895,0.00002711,-0.00001504,0.00003554,-0.00001580,-0.0000
 3041,-0.00000045,0.00000718,0.00000065,-0.00000023,-0.00000535,0.00000
 036,-0.00000148,-0.00000254,0.00000049,-0.00000445,-0.00000203,0.00000
 117,0.00000860,0.00000103,-0.00000430,0.00000748,-0.00001904,0.0000411
 8,0.00000242,0.00000716,-0.00000587,-0.00000067,0.00000533,0.00000011,
 -0.00000308,0.00000775,-0.00000042,-0.00000273,-0.00000619,-0.00000084
 ,-0.00327904,-0.00311913,-0.00009300,-0.00061555,-0.00041588,-0.000657
 90,-0.01390952,0.01431568,0.02133084,0.00034134,-0.00290628,-0.0011560
 0,-0.16208511,0.07379283,0.11856712,0.01077319,-0.00678539,-0.00942663
 ,0.00001116,0.00020894,-0.00004622,0.00109185,0.00065435,-0.00091210,0
 .00035513,-0.00032289,-0.00046484,0.16821234,-0.00017174,0.00000599,0.
 00000943,-0.00042986,0.00049400,0.00020714,0.00007100,-0.00001161,0.00
 008101,-0.00003968,0.00001113,0.00000020,0.00000465,0.00000375,-0.0000
 0907,-0.00000116,-0.00000173,0.00000031,-0.00000140,-0.00000087,0.0000
 0180,0.00000057,-0.00000311,0.00000043,0.00000212,0.00000212,0.0000008
 0,-0.00000356,-0.00000261,0.00000391,-0.00000439,-0.00005141,0.0000269
 1,0.00003753,-0.00002456,0.00003773,-0.00000608,0.00002931,-0.00000957
 ,0.00001292,-0.00001469,-0.00002059,-0.00001102,-0.00001726,0.00001579
 ,-0.00000387,0.00002906,0.00001575,-0.00000057,0.00000036,-0.00000095,
 -0.00000015,-0.00000047,0.00000002,-0.00000018,-0.00000023,-0.00000049
 ,-0.00000019,-0.00000005,0.00000013,0.00000040,-0.00000054,-0.00000176
 ,-0.00000413,0.00000557,-0.00000399,0.00000104,-0.00000109,0.00000219,
 0.00000154,-0.00000072,0.00000058,0.00000130,-0.00000051,0.00000062,-0
 .00000147,-0.00000003,-0.00000277,-0.00284747,0.00410797,-0.00288629,-
 0.00051749,-0.00091655,0.00048690,-0.00628017,0.00690933,0.00526361,-0
 .00324820,0.00153876,-0.00546410,0.07405446,-0.10498199,-0.09544357,0.
 01395831,-0.00465887,-0.01367226,0.00020999,-0.00045383,0.00043680,0.0
 0113530,-0.00196166,0.00242291,0.00067201,-0.00035343,-0.00064252,-0.0
 7719259,0.10198399,-0.00000575,0.00008133,-0.00002083,-0.00007987,-0.0
 0020886,0.00014362,0.00007246,0.00001090,-0.00013520,0.00006452,0.0000
 1136,0.00002881,-0.00001133,-0.00002700,0.00000689,0.00000671,0.000010
 94,-0.00000045,0.00000052,-0.00000100,-0.00000253,0.00000476,0.0000083
 0,-0.00000188,-0.00000294,-0.00000115,-0.00000096,0.00000966,0.0000102
 6,-0.00000400,-0.00000027,0.00003998,-0.00001204,-0.00002115,0.0000205
 8,-0.00000932,0.00001518,-0.00002488,0.00000174,-0.00000981,0.00000549
 ,0.00001585,0.00000753,0.00000510,-0.00001188,-0.00000419,-0.00001481,
 -0.00000605,0.00000116,-0.00000324,0.00000054,0.00000014,0.00000230,0.
 00000003,0.00000088,0.00000109,0.00000034,0.00000181,0.00000079,-0.000
 00056,-0.00000241,-0.00000032,0.00000244,-0.00000752,0.00000790,-0.000
 02612,-0.00000108,-0.00000166,0.00000025,-0.00000111,-0.00000225,-0.00
 000154,-0.00000006,-0.00000190,-0.00000072,0.00000236,0.00000115,0.000
 00162,0.00020095,-0.00297203,0.00432726,-0.00066414,0.00059207,-0.0003
 3555,-0.00179516,-0.00085047,0.00354873,-0.00148911,-0.00552937,0.0015
 7634,0.11872155,-0.09537357,-0.17944827,0.01347396,-0.00743033,-0.0082
 0582,-0.00002041,0.00043623,-0.00041763,-0.00053672,0.00243656,-0.0016
 1057,0.00063164,-0.00031427,-0.00051525,-0.12788871,0.10652451,0.18230
 958,0.00012473,-0.00016037,0.00002240,-0.00019553,0.00015510,-0.000209
 12,-0.00006095,0.00005702,0.00002229,-0.00003591,-0.00000215,0.0000046
 7,0.00001563,0.00002923,-0.00000846,-0.00000890,-0.00001514,0.00000166
 ,0.00000083,0.00000278,0.00000138,-0.00000806,-0.00000904,0.00000305,0
 .00000153,-0.00000223,-0.00000051,-0.00001103,-0.00001016,0.00000425,-
 0.00001044,-0.00000004,-0.00000854,-0.00002361,0.00000387,-0.00001146,
 -0.00000887,-0.00001131,0.00000446,-0.00000366,0.00001467,0.00000702,0
 .00000259,0.00001584,-0.00000442,0.00001712,-0.00001693,-0.00001529,-0
 .00000093,0.00000432,-0.00000038,0.00000002,-0.00000284,0.00000002,-0.
 00000102,-0.00000141,0.00000009,-0.00000248,-0.00000100,0.00000074,0.0
 0000386,0.00000077,-0.00000177,0.00001011,-0.00001501,0.00003076,0.000
 00066,0.00000510,-0.00000453,-0.00000140,0.00000414,0.00000007,-0.0000
 0171,0.00000432,0.00000015,-0.00000108,-0.00000210,0.00000092,0.000754
 70,0.00039794,0.00003255,0.00012452,0.00106900,0.00340174,0.00138012,-
 0.00215809,-0.00068533,-0.01298805,-0.00610319,-0.00183322,-0.00628237
 ,-0.00037928,0.00257324,-0.33242980,-0.06912773,0.01032444,-0.00068478
 ,-0.00031895,-0.00013684,-0.00038010,0.00003855,0.00016378,0.00069862,
 0.00076261,-0.00063309,0.00053961,0.00062558,-0.00072475,0.34957023,0.
 00013027,-0.00000439,0.00005483,0.00014455,-0.00046319,0.00075767,-0.0
 0010491,0.00001559,-0.00002242,0.00007087,-0.00005200,0.00000400,-0.00
 000791,0.00000824,0.00000998,-0.00000355,-0.00000204,-0.00000134,0.000
 00109,0.00000085,0.00000072,-0.00000259,-0.00000031,0.00000113,-0.0000
 0173,-0.00000186,0.00000066,0.00000158,-0.00000449,-0.00000031,-0.0000
 1046,0.00003839,-0.00000414,-0.00000521,0.00000317,-0.00000707,-0.0000
 1029,0.00000610,0.00000227,0.00000089,0.00000538,-0.00000521,0.0000034
 2,0.00000035,-0.00000248,-0.00000009,-0.00000664,-0.00000956,0.0000001
 1,0.00000166,0.00000012,-0.00000008,-0.00000083,0.00000005,-0.00000033
 ,-0.00000034,-0.00000008,-0.00000082,-0.00000060,-0.00000008,0.0000003
 9,0.00000097,-0.00000095,0.00000742,-0.00000985,0.00001004,0.00000284,
 -0.00000080,0.00000184,0.00000082,0.00000057,0.00000096,-0.00000007,0.
 00000084,0.00000045,-0.00000060,-0.00000071,0.00000020,0.00032863,-0.0
 0091340,-0.00036947,0.00075760,0.00300506,-0.00519676,-0.00182144,0.00
 135007,-0.00613706,0.01473223,0.00693415,-0.00089271,-0.02130103,-0.00
 083187,0.00118255,-0.06909947,-0.06401863,-0.00775447,0.00065415,0.000
 22191,-0.00004156,-0.00095704,-0.00010963,0.00008574,0.00029647,-0.001
 89151,0.00259604,0.00108870,-0.00163593,0.00253600,0.07514961,0.058344
 76,-0.00015548,-0.00004651,-0.00004046,-0.00018192,0.00059865,-0.00041
 273,0.00006059,-0.00001511,0.00010385,-0.00006639,0.00007295,-0.000020
 90,0.00001274,0.00000205,-0.00000513,0.00000191,-0.00000221,-0.0000012
 7,-0.00000176,0.00000007,0.00000119,0.00000113,-0.00000253,-0.00000082
 ,0.00000206,0.00000300,-0.00000037,-0.00000491,0.00000021,0.00000017,0
 .00001984,-0.00003166,0.00001099,0.00002166,-0.00000377,-0.00000908,0.
 00000663,0.00000466,0.00000578,0.00000109,-0.00000480,-0.00000191,-0.0
 0000643,-0.00000380,0.00000423,-0.00000234,0.00002291,0.00002153,-0.00
 000069,0.00000078,-0.00000031,0.00000007,0.00000002,0.,-0.00000003,-0.
 00000004,0.00000002,0.00000016,0.00000032,0.00000025,0.00000037,-0.000
 00034,0.00000025,-0.00000207,-0.00000585,0.00000524,-0.00000168,0.0000
 0037,-0.00000085,-0.00000067,-0.00000046,0.00000010,0.00000035,-0.0000
 0109,-0.00000041,-0.00000043,0.00000050,-0.00000097,0.00014063,-0.0004
 1737,-0.00121643,0.00322896,-0.00524847,0.00061190,-0.00054447,-0.0060
 0085,0.00087958,0.02119891,0.00526830,0.00344766,-0.02041654,-0.004754
 50,0.00453164,0.01032888,-0.00793545,-0.05063123,0.00099973,0.00025461
 ,0.00006891,-0.00092865,-0.00017657,0.00011756,-0.00111262,0.00251412,
 -0.00116440,-0.00025177,0.00266381,-0.00118651,-0.01233447,0.01324811,
 0.04486242,-0.17920894,-0.05802361,0.01946505,-0.07935853,0.03615124,-
 0.00215728,-0.05113462,0.00281410,0.00201203,-0.04990139,0.00867277,-0
 .00188738,0.01054391,-0.00356901,0.00057356,-0.00167081,-0.00410728,0.
 00136666,0.00105720,-0.00009149,-0.00042743,-0.00029767,-0.00029907,0.
 00023774,-0.00036989,0.00075585,-0.00012389,-0.00012617,-0.00380734,-0
 .00003901,0.00048970,-0.01296801,0.00221548,0.00274891,0.00241841,-0.0
 0134317,0.00023954,-0.00070823,-0.00043551,0.00041894,0.00021170,-0.00
 035845,-0.00018056,-0.00123907,0.00113988,-0.00249220,0.00258754,0.000
 17138,-0.00018937,0.00001203,-0.00000788,-0.00011976,-0.00018937,-0.00
 006263,-0.00006253,0.00003236,0.00002498,-0.00005104,-0.00004779,0.000
 00679,-0.00092204,-0.00062866,0.00096329,-0.00011086,0.00013569,-0.000
 11352,-0.00014395,-0.00001304,-0.00012318,-0.00004316,-0.00004068,-0.0
 0006126,0.00003267,-0.00003881,0.00001796,-0.00000659,-0.00047081,-0.0
 0031728,0.00453471,0.00589928,0.00017615,-0.00085125,0.00039551,0.0009
 1365,-0.00227111,-0.00185341,-0.00025264,-0.00033845,-0.00053423,0.000
 08215,-0.00019511,0.00033698,0.00030593,-0.00047304,-0.00010356,-0.000
 18368,0.00005307,-0.00003698,-0.00015699,0.00018629,-0.00011909,-0.000
 20642,-0.00022524,-0.00012938,-0.00001860,-0.00032093,-0.00002334,0.00
 005075,-0.00010421,-0.00004399,-0.00001238,0.35086446,-0.08438294,-0.0
 7064931,0.01194765,-0.01232266,-0.00781919,0.00428230,0.06036967,-0.01
 771718,0.00418265,0.02199725,-0.09476080,0.01116700,0.01170613,-0.0305
 0917,0.00399753,-0.00339867,0.00183549,0.00135603,0.00066493,-0.001376
 42,-0.00051309,0.00055717,0.00104290,-0.00019956,-0.00051502,-0.000724
 30,-0.00029382,0.00184267,0.00036485,-0.00000431,-0.02355134,-0.012768
 60,0.00458721,0.00090560,-0.00102404,-0.00203482,0.00085200,-0.0006189
 2,0.00122323,-0.00035642,0.00017651,0.00028765,0.00000448,0.00038626,0
 .00025350,-0.00163818,-0.00108332,0.00031948,0.00040409,0.00040035,0.0
 0006542,-0.00028845,-0.00022642,0.00005796,-0.00001982,0.00006950,0.00
 010992,0.00012282,0.00007487,0.00000778,-0.00157097,-0.00081632,0.0013
 4607,-0.00034020,0.00003563,-0.00028805,0.00007631,-0.00014015,0.00005
 325,-0.00006903,-0.00001195,-0.00009658,-0.00003750,0.00008434,-0.0000
 7892,-0.00052024,-0.00097658,-0.00034696,0.00229124,-0.00189760,0.0012
 4462,-0.00054385,0.00014325,-0.00000470,-0.00071443,0.00002975,-0.0002
 8521,-0.00013886,-0.00020062,-0.00005516,0.00007903,0.00047645,0.00008
 665,0.00003211,-0.00016950,-0.00008548,0.00000812,-0.00003389,-0.00003
 095,-0.00005319,0.00007917,0.00020500,-0.00006241,-0.00003352,0.000017
 60,-0.00004874,-0.00002758,0.00001430,-0.00000347,0.00001098,-0.000004
 07,0.02866277,0.23837508,0.02294980,0.00737009,-0.04199862,0.00703531,
 0.00197116,0.00930614,-0.00905803,0.00655772,0.01736932,-0.00335345,0.
 01221324,-0.03595966,-0.00334869,0.00529570,-0.00336223,0.00071530,-0.
 00057140,0.00095759,0.00032098,0.00019104,0.00057128,-0.00033605,0.000
 27541,0.00015625,-0.00007573,-0.00073639,-0.00048960,-0.00039145,0.001
 60370,0.00038510,0.00536761,0.00725962,-0.00131753,0.00028007,0.001121
 61,0.00095791,0.00017832,-0.00034083,-0.00053167,-0.00073146,-0.000295
 64,0.00092221,0.00052369,0.00151161,-0.00090719,0.00035516,-0.00252365
 ,0.00049966,-0.00016399,-0.00005652,-0.00022578,0.00000140,0.00001192,
 -0.00014653,0.00003484,-0.00004208,0.00004997,-0.00002704,-0.00002553,
 -0.00002024,0.00143679,0.00067737,0.00008629,0.00003592,-0.00006413,0.
 00013225,-0.00006626,0.00006762,-0.00009826,0.00002547,0.00003273,0.00
 001973,-0.00003439,0.00001778,-0.00006646,0.00017376,-0.00047298,-0.00
 007741,-0.00076921,0.00129311,0.00572100,0.00099854,-0.00000847,-0.000
 41028,-0.00107173,-0.00007483,-0.00019044,0.00003781,0.00027074,-0.000
 18810,-0.00000569,0.00030652,0.00022899,0.00019022,0.00001932,-0.00000
 332,0.00006240,-0.00013267,0.00011966,0.00011749,-0.00018297,-0.000109
 65,0.00005959,0.00004427,-0.00001701,-0.00004496,-0.00004538,-0.000010
 37,0.00001251,-0.00004772,0.00002052,-0.02143486,-0.04249112,0.0486264
 8\\-0.00000354,-0.00000209,0.00000079,0.00000205,0.00000153,0.00000013
 ,-0.00000034,-0.00000230,-0.00000197,0.00000319,0.00000764,-0.00000293
 ,-0.00000576,-0.00000828,0.00000216,0.00000224,-0.00000127,-0.00000348
 ,0.00000224,-0.00000108,-0.00000317,0.00000094,0.00000009,-0.00000188,
 0.00000138,-0.00000452,0.00000068,0.00000328,0.00000148,-0.00000012,-0
 .00000207,0.00000173,0.00000396,-0.00000202,0.00000153,0.00000173,-0.0
 0000230,0.00000169,0.00000345,-0.00000196,0.00000150,0.00000574,-0.000
 00034,0.00000066,0.00000543,0.00000037,-0.00000173,0.00000398,0.000000
 49,0.00000089,-0.00000349,0.00000078,-0.00000138,-0.00000480,0.0000021
 3,-0.00000227,-0.00000222,0.00000207,-0.00000214,0.00000182,0.00000207
 ,-0.00000139,0.00000198,-0.00000209,0.00000227,0.00000088,-0.00000309,
 0.00000306,0.00000318,-0.00000229,0.00000166,0.00000627,-0.00000030,-0
 .00000051,0.00000734,0.00000072,-0.00000107,0.00000512,-0.00000177,-0.
 00000081,-0.00000273,0.00000246,0.00000031,-0.00000100,-0.00000114,0.0
 0000168,-0.00000271,-0.00000008,-0.00000044,-0.00000179,-0.00000061,0.
 00000166,-0.00000403,0.00000005,0.00000041,-0.00000446,0.00000123,-0.0
 0000165,-0.00000015,-0.00000147,0.00000197,-0.00000376,0.00000127,-0.0
 0000112,-0.00000195,-0.00000164,0.00000237,-0.00000552,-0.00000025,0.0
 0000068,-0.00000474,0.00000412,-0.00000076,0.00000229\\\@


  DISAPPOINTMENT IS THE NURSE OF WISDOM.               
                              SIR BOYLE ROCHE                 
 Job cpu time:       3 days 16 hours 41 minutes 11.5 seconds.
 File lengths (MBytes):  RWF=   3238 Int=      0 D2E=      0 Chk=     38 Scr=      1
 Normal termination of Gaussian 09 at Sun Nov 14 23:28:58 2021.
