 Entering Gaussian System, Link 0=g09
 Input=reag_NHC10_et.gjf
 Output=reag_NHC10_et.log
 Initial command:
 /usr/local/gqt/g09/l1.exe "/usr/local/gqt/lixogaussian/Gau-15965.inp" -scrdir="/usr/local/gqt/lixogaussian/"
 Entering Link 1 = /usr/local/gqt/g09/l1.exe PID=     15967.
  
 Copyright (c) 1988,1990,1992,1993,1995,1998,2003,2009,2013,
            Gaussian, Inc.  All Rights Reserved.
  
 This is part of the Gaussian(R) 09 program.  It is based on
 the Gaussian(R) 03 system (copyright 2003, Gaussian, Inc.),
 the Gaussian(R) 98 system (copyright 1998, Gaussian, Inc.),
 the Gaussian(R) 94 system (copyright 1995, Gaussian, Inc.),
 the Gaussian 92(TM) system (copyright 1992, Gaussian, Inc.),
 the Gaussian 90(TM) system (copyright 1990, Gaussian, Inc.),
 the Gaussian 88(TM) system (copyright 1988, Gaussian, Inc.),
 the Gaussian 86(TM) system (copyright 1986, Carnegie Mellon
 University), and the Gaussian 82(TM) system (copyright 1983,
 Carnegie Mellon University). Gaussian is a federally registered
 trademark of Gaussian, Inc.
  
 This software contains proprietary and confidential information,
 including trade secrets, belonging to Gaussian, Inc.
  
 This software is provided under written license and may be
 used, copied, transmitted, or stored only in accord with that
 written license.
  
 The following legend is applicable only to US Government
 contracts under FAR:
  
                    RESTRICTED RIGHTS LEGEND
  
 Use, reproduction and disclosure by the US Government is
 subject to restrictions as set forth in subparagraphs (a)
 and (c) of the Commercial Computer Software - Restricted
 Rights clause in FAR 52.227-19.
  
 Gaussian, Inc.
 340 Quinnipiac St., Bldg. 40, Wallingford CT 06492
  
  
 ---------------------------------------------------------------
 Warning -- This program may not be used in any manner that
 competes with the business of Gaussian, Inc. or will provide
 assistance to any competitor of Gaussian, Inc.  The licensee
 of this program is prohibited from giving any competitor of
 Gaussian, Inc. access to this program.  By using this program,
 the user acknowledges that Gaussian, Inc. is engaged in the
 business of creating and licensing software in the field of
 computational chemistry and represents and warrants to the
 licensee that it is not a competitor of Gaussian, Inc. and that
 it will not use this program in any manner prohibited above.
 ---------------------------------------------------------------
  

 Cite this work as:
 Gaussian 09, Revision D.01,
 M. J. Frisch, G. W. Trucks, H. B. Schlegel, G. E. Scuseria, 
 M. A. Robb, J. R. Cheeseman, G. Scalmani, V. Barone, B. Mennucci, 
 G. A. Petersson, H. Nakatsuji, M. Caricato, X. Li, H. P. Hratchian, 
 A. F. Izmaylov, J. Bloino, G. Zheng, J. L. Sonnenberg, M. Hada, 
 M. Ehara, K. Toyota, R. Fukuda, J. Hasegawa, M. Ishida, T. Nakajima, 
 Y. Honda, O. Kitao, H. Nakai, T. Vreven, J. A. Montgomery, Jr., 
 J. E. Peralta, F. Ogliaro, M. Bearpark, J. J. Heyd, E. Brothers, 
 K. N. Kudin, V. N. Staroverov, T. Keith, R. Kobayashi, J. Normand, 
 K. Raghavachari, A. Rendell, J. C. Burant, S. S. Iyengar, J. Tomasi, 
 M. Cossi, N. Rega, J. M. Millam, M. Klene, J. E. Knox, J. B. Cross, 
 V. Bakken, C. Adamo, J. Jaramillo, R. Gomperts, R. E. Stratmann, 
 O. Yazyev, A. J. Austin, R. Cammi, C. Pomelli, J. W. Ochterski, 
 R. L. Martin, K. Morokuma, V. G. Zakrzewski, G. A. Voth, 
 P. Salvador, J. J. Dannenberg, S. Dapprich, A. D. Daniels, 
 O. Farkas, J. B. Foresman, J. V. Ortiz, J. Cioslowski, 
 and D. J. Fox, Gaussian, Inc., Wallingford CT, 2013.
 
 ******************************************
 Gaussian 09:  ES64L-G09RevD.01 24-Apr-2013
                 5-Oct-2021 
 ******************************************
 %nprocshared=16
 Will use up to   16 processors via shared memory.
 %mem=50GB
 %chk=reag_NHC10_et.chk
 ------------------------------------------------------------
 #p opt freq n12sx/6-311+g(d,p) scrf=(iefpcm,solvent=ethanol)
 ------------------------------------------------------------
 1/14=-1,18=20,19=15,26=3,38=1/1,3;
 2/9=110,12=2,17=6,18=5,40=1/2;
 3/5=4,6=6,7=111,11=2,16=1,25=1,30=1,70=2201,71=1,72=4,74=-69/1,2,3;
 4//1;
 5/5=2,38=5,53=4/2;
 6/7=2,8=2,9=2,10=2,28=1/1;
 7//1,2,3,16;
 1/14=-1,18=20,19=15,26=3/3(2);
 2/9=110/2;
 99//99;
 2/9=110/2;
 3/5=4,6=6,7=111,11=2,16=1,25=1,30=1,70=2205,71=1,72=4,74=-69/1,2,3;
 4/5=5,16=3,69=1/1;
 5/5=2,38=5,53=4/2;
 7//1,2,3,16;
 1/14=-1,18=20,19=15,26=3/3(-5);
 2/9=110/2;
 6/7=2,8=2,9=2,10=2,19=2,28=1/1;
 99/9=1/99;
 Leave Link    1 at Tue Oct  5 01:12:38 2021, MaxMem=  6710886400 cpu:         0.7
 (Enter /usr/local/gqt/g09/l101.exe)
 -----
 TITLE
 -----
 Symbolic Z-matrix:
 Charge =  0 Multiplicity = 1
 6                     2.93775   0.01416  -0.0673 
 6                     5.02738  -0.76471  -0.46265 
 6                     4.90207  -0.60958   0.87157 
 7                     3.82309  -0.37962  -1.01182 
 7                     3.62573  -0.13607   1.08817 
 6                     3.54027  -0.39659  -2.43028 
 1                     2.52755  -0.04251  -2.58018 
 6                     3.08629   0.16453   2.39644 
 1                     2.06881   0.51551   2.27323 
 1                     1.19879   0.59791  -0.28539 
 8                     0.26243   0.91333  -0.40856 
 6                     0.21772   2.30927  -0.23773 
 1                     0.49301   2.58074   0.78785 
 1                     0.93918   2.80077  -0.89912 
 6                    -4.37317  -1.05483  -0.87439 
 6                    -2.34233  -0.73507   1.14693 
 6                    -3.08808  -1.86427  -0.91224 
 1                    -4.65519  -0.67263  -1.85184 
 1                    -5.20155  -1.68558  -0.54333 
 6                    -2.59413  -2.07506   0.50601 
 1                    -2.14672  -0.81978   2.21108 
 1                    -1.50471  -0.2258    0.67044 
 1                    -3.26702  -2.81198  -1.41487 
 1                    -2.3288   -1.3347   -1.48808 
 1                    -1.66318  -2.63916   0.52348 
 1                    -3.32782  -2.64115   1.08171 
 8                    -3.47781   0.15784   1.05406 
 8                    -5.20526   0.98852   0.01189 
 6                    -4.37482   0.11239   0.07456 
 6                    -1.17243   2.81802  -0.53805 
 1                    -1.22695   3.89587  -0.39216 
 1                    -1.44741   2.59988  -1.56897 
 1                    -1.90502   2.34717   0.11537 
 6                     5.9022   -0.87266   2.01268 
 1                     5.39274  -0.94959   2.97997 
 1                     6.45191  -1.80738   1.8539 
 1                     6.63936  -0.06548   2.09119 
 6                     6.2144   -1.25924  -1.31002 
 1                     7.11267  -1.39581  -0.69718 
 1                     5.9911   -2.22028  -1.78713 
 1                     6.46212  -0.54602  -2.10442 
 6                     4.51659   0.52484  -3.18484 
 1                     5.39795   0.75645  -2.57601 
 1                     4.86913   0.0589   -4.11205 
 1                     4.04161   1.47542  -3.453 
 6                     3.66504  -1.82666  -2.98791 
 1                     4.69162  -2.2005   -2.90146 
 1                     3.01348  -2.52352  -2.4485 
 1                     3.38698  -1.86756  -4.04721 
 6                     3.92101   1.2604    3.08485 
 1                     3.49277   1.53808   4.0547 
 1                     4.94974   0.92643   3.26175 
 1                     3.96937   2.16852   2.47322 
 6                     3.08354  -1.09609   3.281 
 1                     2.06216  -1.42783   3.49972 
 1                     3.60312  -1.92789   2.79186 
 1                     3.58319  -0.91243   4.23897 
 
 Add virtual bond connecting atoms H10        and C1         Dist= 3.49D+00.
 Add virtual bond connecting atoms H22        and O11        Dist= 4.47D+00.
 NAtoms=     57 NQM=       57 NQMF=       0 NMMI=      0 NMMIF=      0
                NMic=       0 NMicF=      0.
                    Isotopes and Nuclear Properties:
 (Nuclear quadrupole moments (NQMom) in fm**2, nuclear magnetic moments (NMagM)
  in nuclear magnetons)

  Atom         1           2           3           4           5           6           7           8           9          10
 IAtWgt=          12          12          12          14          14          12           1          12           1           1
 AtmWgt=  12.0000000  12.0000000  12.0000000  14.0030740  14.0030740  12.0000000   1.0078250  12.0000000   1.0078250   1.0078250
 NucSpn=           0           0           0           2           2           0           1           0           1           1
 AtZEff=   0.0000000   0.0000000   0.0000000   0.0000000   0.0000000   0.0000000   0.0000000   0.0000000   0.0000000   0.0000000
 NQMom=    0.0000000   0.0000000   0.0000000   2.0440000   2.0440000   0.0000000   0.0000000   0.0000000   0.0000000   0.0000000
 NMagM=    0.0000000   0.0000000   0.0000000   0.4037610   0.4037610   0.0000000   2.7928460   0.0000000   2.7928460   2.7928460
 AtZNuc=   6.0000000   6.0000000   6.0000000   7.0000000   7.0000000   6.0000000   1.0000000   6.0000000   1.0000000   1.0000000

  Atom        11          12          13          14          15          16          17          18          19          20
 IAtWgt=          16          12           1           1          12          12          12           1           1          12
 AtmWgt=  15.9949146  12.0000000   1.0078250   1.0078250  12.0000000  12.0000000  12.0000000   1.0078250   1.0078250  12.0000000
 NucSpn=           0           0           1           1           0           0           0           1           1           0
 AtZEff=   0.0000000   0.0000000   0.0000000   0.0000000   0.0000000   0.0000000   0.0000000   0.0000000   0.0000000   0.0000000
 NQMom=    0.0000000   0.0000000   0.0000000   0.0000000   0.0000000   0.0000000   0.0000000   0.0000000   0.0000000   0.0000000
 NMagM=    0.0000000   0.0000000   2.7928460   2.7928460   0.0000000   0.0000000   0.0000000   2.7928460   2.7928460   0.0000000
 AtZNuc=   8.0000000   6.0000000   1.0000000   1.0000000   6.0000000   6.0000000   6.0000000   1.0000000   1.0000000   6.0000000

  Atom        21          22          23          24          25          26          27          28          29          30
 IAtWgt=           1           1           1           1           1           1          16          16          12          12
 AtmWgt=   1.0078250   1.0078250   1.0078250   1.0078250   1.0078250   1.0078250  15.9949146  15.9949146  12.0000000  12.0000000
 NucSpn=           1           1           1           1           1           1           0           0           0           0
 AtZEff=   0.0000000   0.0000000   0.0000000   0.0000000   0.0000000   0.0000000   0.0000000   0.0000000   0.0000000   0.0000000
 NQMom=    0.0000000   0.0000000   0.0000000   0.0000000   0.0000000   0.0000000   0.0000000   0.0000000   0.0000000   0.0000000
 NMagM=    2.7928460   2.7928460   2.7928460   2.7928460   2.7928460   2.7928460   0.0000000   0.0000000   0.0000000   0.0000000
 AtZNuc=   1.0000000   1.0000000   1.0000000   1.0000000   1.0000000   1.0000000   8.0000000   8.0000000   6.0000000   6.0000000

  Atom        31          32          33          34          35          36          37          38          39          40
 IAtWgt=           1           1           1          12           1           1           1          12           1           1
 AtmWgt=   1.0078250   1.0078250   1.0078250  12.0000000   1.0078250   1.0078250   1.0078250  12.0000000   1.0078250   1.0078250
 NucSpn=           1           1           1           0           1           1           1           0           1           1
 AtZEff=   0.0000000   0.0000000   0.0000000   0.0000000   0.0000000   0.0000000   0.0000000   0.0000000   0.0000000   0.0000000
 NQMom=    0.0000000   0.0000000   0.0000000   0.0000000   0.0000000   0.0000000   0.0000000   0.0000000   0.0000000   0.0000000
 NMagM=    2.7928460   2.7928460   2.7928460   0.0000000   2.7928460   2.7928460   2.7928460   0.0000000   2.7928460   2.7928460
 AtZNuc=   1.0000000   1.0000000   1.0000000   6.0000000   1.0000000   1.0000000   1.0000000   6.0000000   1.0000000   1.0000000

  Atom        41          42          43          44          45          46          47          48          49          50
 IAtWgt=           1          12           1           1           1          12           1           1           1          12
 AtmWgt=   1.0078250  12.0000000   1.0078250   1.0078250   1.0078250  12.0000000   1.0078250   1.0078250   1.0078250  12.0000000
 NucSpn=           1           0           1           1           1           0           1           1           1           0
 AtZEff=   0.0000000   0.0000000   0.0000000   0.0000000   0.0000000   0.0000000   0.0000000   0.0000000   0.0000000   0.0000000
 NQMom=    0.0000000   0.0000000   0.0000000   0.0000000   0.0000000   0.0000000   0.0000000   0.0000000   0.0000000   0.0000000
 NMagM=    2.7928460   0.0000000   2.7928460   2.7928460   2.7928460   0.0000000   2.7928460   2.7928460   2.7928460   0.0000000
 AtZNuc=   1.0000000   6.0000000   1.0000000   1.0000000   1.0000000   6.0000000   1.0000000   1.0000000   1.0000000   6.0000000

  Atom        51          52          53          54          55          56          57
 IAtWgt=           1           1           1          12           1           1           1
 AtmWgt=   1.0078250   1.0078250   1.0078250  12.0000000   1.0078250   1.0078250   1.0078250
 NucSpn=           1           1           1           0           1           1           1
 AtZEff=   0.0000000   0.0000000   0.0000000   0.0000000   0.0000000   0.0000000   0.0000000
 NQMom=    0.0000000   0.0000000   0.0000000   0.0000000   0.0000000   0.0000000   0.0000000
 NMagM=    2.7928460   2.7928460   2.7928460   0.0000000   2.7928460   2.7928460   2.7928460
 AtZNuc=   1.0000000   1.0000000   1.0000000   6.0000000   1.0000000   1.0000000   1.0000000
 Leave Link  101 at Tue Oct  5 01:12:38 2021, MaxMem=  6710886400 cpu:         7.3
 (Enter /usr/local/gqt/g09/l103.exe)

 GradGradGradGradGradGradGradGradGradGradGradGradGradGradGradGradGradGrad
 Berny optimization.
 Initialization pass.
                           ----------------------------
                           !    Initial Parameters    !
                           ! (Angstroms and Degrees)  !
 --------------------------                            --------------------------
 ! Name  Definition              Value          Derivative Info.                !
 --------------------------------------------------------------------------------
 ! R1    R(1,4)                  1.3532         estimate D2E/DX2                !
 ! R2    R(1,5)                  1.3531         estimate D2E/DX2                !
 ! R3    R(1,10)                 1.8472         estimate D2E/DX2                !
 ! R4    R(2,3)                  1.349          estimate D2E/DX2                !
 ! R5    R(2,4)                  1.3785         estimate D2E/DX2                !
 ! R6    R(2,38)                 1.54           estimate D2E/DX2                !
 ! R7    R(3,5)                  1.3785         estimate D2E/DX2                !
 ! R8    R(3,34)                 1.54           estimate D2E/DX2                !
 ! R9    R(4,6)                  1.4465         estimate D2E/DX2                !
 ! R10   R(5,8)                  1.4467         estimate D2E/DX2                !
 ! R11   R(6,7)                  1.0833         estimate D2E/DX2                !
 ! R12   R(6,42)                 1.54           estimate D2E/DX2                !
 ! R13   R(6,46)                 1.54           estimate D2E/DX2                !
 ! R14   R(8,9)                  1.0833         estimate D2E/DX2                !
 ! R15   R(8,50)                 1.54           estimate D2E/DX2                !
 ! R16   R(8,54)                 1.54           estimate D2E/DX2                !
 ! R17   R(10,11)                0.9957         estimate D2E/DX2                !
 ! R18   R(11,12)                1.4071         estimate D2E/DX2                !
 ! R19   R(11,22)                2.3632         estimate D2E/DX2                !
 ! R20   R(12,13)                1.096          estimate D2E/DX2                !
 ! R21   R(12,14)                1.0952         estimate D2E/DX2                !
 ! R22   R(12,30)                1.5105         estimate D2E/DX2                !
 ! R23   R(15,17)                1.5192         estimate D2E/DX2                !
 ! R24   R(15,18)                1.0867         estimate D2E/DX2                !
 ! R25   R(15,19)                1.0925         estimate D2E/DX2                !
 ! R26   R(15,29)                1.5043         estimate D2E/DX2                !
 ! R27   R(16,20)                1.5066         estimate D2E/DX2                !
 ! R28   R(16,21)                1.0853         estimate D2E/DX2                !
 ! R29   R(16,22)                1.09           estimate D2E/DX2                !
 ! R30   R(16,27)                1.4475         estimate D2E/DX2                !
 ! R31   R(17,20)                1.5165         estimate D2E/DX2                !
 ! R32   R(17,23)                1.0876         estimate D2E/DX2                !
 ! R33   R(17,24)                1.0902         estimate D2E/DX2                !
 ! R34   R(20,25)                1.0887         estimate D2E/DX2                !
 ! R35   R(20,26)                1.091          estimate D2E/DX2                !
 ! R36   R(27,29)                1.329          estimate D2E/DX2                !
 ! R37   R(28,29)                1.2088         estimate D2E/DX2                !
 ! R38   R(30,31)                1.0891         estimate D2E/DX2                !
 ! R39   R(30,32)                1.089          estimate D2E/DX2                !
 ! R40   R(30,33)                1.0887         estimate D2E/DX2                !
 ! R41   R(34,35)                1.096          estimate D2E/DX2                !
 ! R42   R(34,36)                1.096          estimate D2E/DX2                !
 ! R43   R(34,37)                1.096          estimate D2E/DX2                !
 ! R44   R(38,39)                1.096          estimate D2E/DX2                !
 ! R45   R(38,40)                1.096          estimate D2E/DX2                !
 ! R46   R(38,41)                1.096          estimate D2E/DX2                !
 ! R47   R(42,43)                1.096          estimate D2E/DX2                !
 ! R48   R(42,44)                1.096          estimate D2E/DX2                !
 ! R49   R(42,45)                1.096          estimate D2E/DX2                !
 ! R50   R(46,47)                1.096          estimate D2E/DX2                !
 ! R51   R(46,48)                1.096          estimate D2E/DX2                !
 ! R52   R(46,49)                1.096          estimate D2E/DX2                !
 ! R53   R(50,51)                1.096          estimate D2E/DX2                !
 ! R54   R(50,52)                1.096          estimate D2E/DX2                !
 ! R55   R(50,53)                1.096          estimate D2E/DX2                !
 ! R56   R(54,55)                1.096          estimate D2E/DX2                !
 ! R57   R(54,56)                1.096          estimate D2E/DX2                !
 ! R58   R(54,57)                1.096          estimate D2E/DX2                !
 ! A1    A(4,1,5)              103.3607         estimate D2E/DX2                !
 ! A2    A(4,1,10)             128.7179         estimate D2E/DX2                !
 ! A3    A(5,1,10)             127.9173         estimate D2E/DX2                !
 ! A4    A(3,2,4)              106.3042         estimate D2E/DX2                !
 ! A5    A(3,2,38)             130.7471         estimate D2E/DX2                !
 ! A6    A(4,2,38)             122.9486         estimate D2E/DX2                !
 ! A7    A(2,3,5)              106.3145         estimate D2E/DX2                !
 ! A8    A(2,3,34)             130.7583         estimate D2E/DX2                !
 ! A9    A(5,3,34)             122.9272         estimate D2E/DX2                !
 ! A10   A(1,4,2)              112.0132         estimate D2E/DX2                !
 ! A11   A(1,4,6)              124.0545         estimate D2E/DX2                !
 ! A12   A(2,4,6)              123.9323         estimate D2E/DX2                !
 ! A13   A(1,5,3)              112.0074         estimate D2E/DX2                !
 ! A14   A(1,5,8)              124.0255         estimate D2E/DX2                !
 ! A15   A(3,5,8)              123.967          estimate D2E/DX2                !
 ! A16   A(4,6,7)              108.3395         estimate D2E/DX2                !
 ! A17   A(4,6,42)             110.4573         estimate D2E/DX2                !
 ! A18   A(4,6,46)             110.4954         estimate D2E/DX2                !
 ! A19   A(7,6,42)             109.2275         estimate D2E/DX2                !
 ! A20   A(7,6,46)             109.2184         estimate D2E/DX2                !
 ! A21   A(42,6,46)            109.0773         estimate D2E/DX2                !
 ! A22   A(5,8,9)              108.3407         estimate D2E/DX2                !
 ! A23   A(5,8,50)             110.4872         estimate D2E/DX2                !
 ! A24   A(5,8,54)             110.4876         estimate D2E/DX2                !
 ! A25   A(9,8,50)             109.231          estimate D2E/DX2                !
 ! A26   A(9,8,54)             109.1992         estimate D2E/DX2                !
 ! A27   A(50,8,54)            109.0693         estimate D2E/DX2                !
 ! A28   A(10,11,12)           109.2166         estimate D2E/DX2                !
 ! A29   A(10,11,22)           119.6057         estimate D2E/DX2                !
 ! A30   A(12,11,22)           113.5172         estimate D2E/DX2                !
 ! A31   A(11,12,13)           110.5697         estimate D2E/DX2                !
 ! A32   A(11,12,14)           110.5463         estimate D2E/DX2                !
 ! A33   A(11,12,30)           109.8315         estimate D2E/DX2                !
 ! A34   A(13,12,14)           106.7659         estimate D2E/DX2                !
 ! A35   A(13,12,30)           109.499          estimate D2E/DX2                !
 ! A36   A(14,12,30)           109.5749         estimate D2E/DX2                !
 ! A37   A(17,15,18)           112.6116         estimate D2E/DX2                !
 ! A38   A(17,15,19)           109.9562         estimate D2E/DX2                !
 ! A39   A(17,15,29)           115.4706         estimate D2E/DX2                !
 ! A40   A(18,15,19)           106.1898         estimate D2E/DX2                !
 ! A41   A(18,15,29)           107.1105         estimate D2E/DX2                !
 ! A42   A(19,15,29)           104.8319         estimate D2E/DX2                !
 ! A43   A(20,16,21)           112.1989         estimate D2E/DX2                !
 ! A44   A(20,16,22)           110.9798         estimate D2E/DX2                !
 ! A45   A(20,16,27)           112.9706         estimate D2E/DX2                !
 ! A46   A(21,16,22)           109.0632         estimate D2E/DX2                !
 ! A47   A(21,16,27)           104.6226         estimate D2E/DX2                !
 ! A48   A(22,16,27)           106.6526         estimate D2E/DX2                !
 ! A49   A(15,17,20)           109.0427         estimate D2E/DX2                !
 ! A50   A(15,17,23)           109.6706         estimate D2E/DX2                !
 ! A51   A(15,17,24)           110.0881         estimate D2E/DX2                !
 ! A52   A(20,17,23)           111.3879         estimate D2E/DX2                !
 ! A53   A(20,17,24)           109.5511         estimate D2E/DX2                !
 ! A54   A(23,17,24)           107.0833         estimate D2E/DX2                !
 ! A55   A(16,20,17)           109.1871         estimate D2E/DX2                !
 ! A56   A(16,20,25)           108.1267         estimate D2E/DX2                !
 ! A57   A(16,20,26)           110.4516         estimate D2E/DX2                !
 ! A58   A(17,20,25)           111.442          estimate D2E/DX2                !
 ! A59   A(17,20,26)           110.279          estimate D2E/DX2                !
 ! A60   A(25,20,26)           107.3229         estimate D2E/DX2                !
 ! A61   A(16,27,29)           123.7576         estimate D2E/DX2                !
 ! A62   A(15,29,27)           119.3894         estimate D2E/DX2                !
 ! A63   A(15,29,28)           122.0347         estimate D2E/DX2                !
 ! A64   A(27,29,28)           118.4991         estimate D2E/DX2                !
 ! A65   A(12,30,31)           110.6579         estimate D2E/DX2                !
 ! A66   A(12,30,32)           110.6796         estimate D2E/DX2                !
 ! A67   A(12,30,33)           110.7498         estimate D2E/DX2                !
 ! A68   A(31,30,32)           108.2056         estimate D2E/DX2                !
 ! A69   A(31,30,33)           108.2965         estimate D2E/DX2                !
 ! A70   A(32,30,33)           108.1561         estimate D2E/DX2                !
 ! A71   A(3,34,35)            111.3513         estimate D2E/DX2                !
 ! A72   A(3,34,36)            111.3513         estimate D2E/DX2                !
 ! A73   A(3,34,37)            111.3513         estimate D2E/DX2                !
 ! A74   A(35,34,36)           107.5275         estimate D2E/DX2                !
 ! A75   A(35,34,37)           107.5274         estimate D2E/DX2                !
 ! A76   A(36,34,37)           107.5274         estimate D2E/DX2                !
 ! A77   A(2,38,39)            111.3513         estimate D2E/DX2                !
 ! A78   A(2,38,40)            111.3513         estimate D2E/DX2                !
 ! A79   A(2,38,41)            111.3513         estimate D2E/DX2                !
 ! A80   A(39,38,40)           107.5275         estimate D2E/DX2                !
 ! A81   A(39,38,41)           107.5274         estimate D2E/DX2                !
 ! A82   A(40,38,41)           107.5274         estimate D2E/DX2                !
 ! A83   A(6,42,43)            111.3513         estimate D2E/DX2                !
 ! A84   A(6,42,44)            111.3513         estimate D2E/DX2                !
 ! A85   A(6,42,45)            111.3513         estimate D2E/DX2                !
 ! A86   A(43,42,44)           107.5275         estimate D2E/DX2                !
 ! A87   A(43,42,45)           107.5274         estimate D2E/DX2                !
 ! A88   A(44,42,45)           107.5274         estimate D2E/DX2                !
 ! A89   A(6,46,47)            111.3513         estimate D2E/DX2                !
 ! A90   A(6,46,48)            111.3513         estimate D2E/DX2                !
 ! A91   A(6,46,49)            111.3513         estimate D2E/DX2                !
 ! A92   A(47,46,48)           107.5275         estimate D2E/DX2                !
 ! A93   A(47,46,49)           107.5274         estimate D2E/DX2                !
 ! A94   A(48,46,49)           107.5274         estimate D2E/DX2                !
 ! A95   A(8,50,51)            111.3513         estimate D2E/DX2                !
 ! A96   A(8,50,52)            111.3513         estimate D2E/DX2                !
 ! A97   A(8,50,53)            111.3513         estimate D2E/DX2                !
 ! A98   A(51,50,52)           107.5275         estimate D2E/DX2                !
 ! A99   A(51,50,53)           107.5274         estimate D2E/DX2                !
 ! A100  A(52,50,53)           107.5274         estimate D2E/DX2                !
 ! A101  A(8,54,55)            111.3513         estimate D2E/DX2                !
 ! A102  A(8,54,56)            111.3513         estimate D2E/DX2                !
 ! A103  A(8,54,57)            111.3513         estimate D2E/DX2                !
 ! A104  A(55,54,56)           107.5275         estimate D2E/DX2                !
 ! A105  A(55,54,57)           107.5274         estimate D2E/DX2                !
 ! A106  A(56,54,57)           107.5274         estimate D2E/DX2                !
 ! A107  L(1,10,11,25,-1)      180.1376         estimate D2E/DX2                !
 ! A108  L(11,22,16,18,-1)     178.37           estimate D2E/DX2                !
 ! A109  L(1,10,11,25,-2)      180.3225         estimate D2E/DX2                !
 ! A110  L(11,22,16,18,-2)     180.9036         estimate D2E/DX2                !
 ! D1    D(5,1,4,2)              0.0272         estimate D2E/DX2                !
 ! D2    D(5,1,4,6)            179.9579         estimate D2E/DX2                !
 ! D3    D(10,1,4,2)          -179.2725         estimate D2E/DX2                !
 ! D4    D(10,1,4,6)             0.6582         estimate D2E/DX2                !
 ! D5    D(4,1,5,3)             -0.0097         estimate D2E/DX2                !
 ! D6    D(4,1,5,8)            179.9884         estimate D2E/DX2                !
 ! D7    D(10,1,5,3)           179.2977         estimate D2E/DX2                !
 ! D8    D(10,1,5,8)            -0.7042         estimate D2E/DX2                !
 ! D9    D(4,1,11,12)         -104.8316         estimate D2E/DX2                !
 ! D10   D(4,1,11,22)          121.8469         estimate D2E/DX2                !
 ! D11   D(5,1,11,12)           75.9849         estimate D2E/DX2                !
 ! D12   D(5,1,11,22)          -57.3366         estimate D2E/DX2                !
 ! D13   D(4,2,3,5)              0.0267         estimate D2E/DX2                !
 ! D14   D(4,2,3,34)          -179.9963         estimate D2E/DX2                !
 ! D15   D(38,2,3,5)          -179.9675         estimate D2E/DX2                !
 ! D16   D(38,2,3,34)            0.0095         estimate D2E/DX2                !
 ! D17   D(3,2,4,1)             -0.0349         estimate D2E/DX2                !
 ! D18   D(3,2,4,6)           -179.9657         estimate D2E/DX2                !
 ! D19   D(38,2,4,1)           179.9598         estimate D2E/DX2                !
 ! D20   D(38,2,4,6)             0.0291         estimate D2E/DX2                !
 ! D21   D(3,2,38,39)           -7.0774         estimate D2E/DX2                !
 ! D22   D(3,2,38,40)          112.9227         estimate D2E/DX2                !
 ! D23   D(3,2,38,41)         -127.0773         estimate D2E/DX2                !
 ! D24   D(4,2,38,39)          172.9293         estimate D2E/DX2                !
 ! D25   D(4,2,38,40)          -67.0707         estimate D2E/DX2                !
 ! D26   D(4,2,38,41)           52.9293         estimate D2E/DX2                !
 ! D27   D(2,3,5,1)             -0.0111         estimate D2E/DX2                !
 ! D28   D(2,3,5,8)            179.9908         estimate D2E/DX2                !
 ! D29   D(34,3,5,1)          -179.9903         estimate D2E/DX2                !
 ! D30   D(34,3,5,8)             0.0116         estimate D2E/DX2                !
 ! D31   D(2,3,34,35)         -161.8314         estimate D2E/DX2                !
 ! D32   D(2,3,34,36)          -41.8314         estimate D2E/DX2                !
 ! D33   D(2,3,34,37)           78.1686         estimate D2E/DX2                !
 ! D34   D(5,3,34,35)           18.1422         estimate D2E/DX2                !
 ! D35   D(5,3,34,36)          138.1423         estimate D2E/DX2                !
 ! D36   D(5,3,34,37)         -101.8577         estimate D2E/DX2                !
 ! D37   D(1,4,6,7)              0.3009         estimate D2E/DX2                !
 ! D38   D(1,4,6,42)           119.9014         estimate D2E/DX2                !
 ! D39   D(1,4,6,46)          -119.3111         estimate D2E/DX2                !
 ! D40   D(2,4,6,7)           -179.7766         estimate D2E/DX2                !
 ! D41   D(2,4,6,42)           -60.1761         estimate D2E/DX2                !
 ! D42   D(2,4,6,46)            60.6114         estimate D2E/DX2                !
 ! D43   D(1,5,8,9)              0.1102         estimate D2E/DX2                !
 ! D44   D(1,5,8,50)          -119.5131         estimate D2E/DX2                !
 ! D45   D(1,5,8,54)           119.6949         estimate D2E/DX2                !
 ! D46   D(3,5,8,9)           -179.8919         estimate D2E/DX2                !
 ! D47   D(3,5,8,50)            60.4848         estimate D2E/DX2                !
 ! D48   D(3,5,8,54)           -60.3073         estimate D2E/DX2                !
 ! D49   D(4,6,42,43)           17.6089         estimate D2E/DX2                !
 ! D50   D(4,6,42,44)          137.609          estimate D2E/DX2                !
 ! D51   D(4,6,42,45)         -102.3911         estimate D2E/DX2                !
 ! D52   D(7,6,42,43)          136.672          estimate D2E/DX2                !
 ! D53   D(7,6,42,44)         -103.328          estimate D2E/DX2                !
 ! D54   D(7,6,42,45)           16.672          estimate D2E/DX2                !
 ! D55   D(46,6,42,43)        -104.0207         estimate D2E/DX2                !
 ! D56   D(46,6,42,44)          15.9793         estimate D2E/DX2                !
 ! D57   D(46,6,42,45)         135.9793         estimate D2E/DX2                !
 ! D58   D(4,6,46,47)          -63.8878         estimate D2E/DX2                !
 ! D59   D(4,6,46,48)           56.1122         estimate D2E/DX2                !
 ! D60   D(4,6,46,49)          176.1122         estimate D2E/DX2                !
 ! D61   D(7,6,46,47)          177.0316         estimate D2E/DX2                !
 ! D62   D(7,6,46,48)          -62.9683         estimate D2E/DX2                !
 ! D63   D(7,6,46,49)           57.0317         estimate D2E/DX2                !
 ! D64   D(42,6,46,47)          57.7187         estimate D2E/DX2                !
 ! D65   D(42,6,46,48)         177.7187         estimate D2E/DX2                !
 ! D66   D(42,6,46,49)         -62.2813         estimate D2E/DX2                !
 ! D67   D(5,8,50,51)          176.9043         estimate D2E/DX2                !
 ! D68   D(5,8,50,52)          -63.0957         estimate D2E/DX2                !
 ! D69   D(5,8,50,53)           56.9043         estimate D2E/DX2                !
 ! D70   D(9,8,50,51)           57.8195         estimate D2E/DX2                !
 ! D71   D(9,8,50,52)          177.8195         estimate D2E/DX2                !
 ! D72   D(9,8,50,53)          -62.1805         estimate D2E/DX2                !
 ! D73   D(54,8,50,51)         -61.4619         estimate D2E/DX2                !
 ! D74   D(54,8,50,52)          58.5381         estimate D2E/DX2                !
 ! D75   D(54,8,50,53)         178.5381         estimate D2E/DX2                !
 ! D76   D(5,8,54,55)         -112.769          estimate D2E/DX2                !
 ! D77   D(5,8,54,56)            7.2311         estimate D2E/DX2                !
 ! D78   D(5,8,54,57)          127.231          estimate D2E/DX2                !
 ! D79   D(9,8,54,55)            6.2963         estimate D2E/DX2                !
 ! D80   D(9,8,54,56)          126.2963         estimate D2E/DX2                !
 ! D81   D(9,8,54,57)         -113.7037         estimate D2E/DX2                !
 ! D82   D(50,8,54,55)         125.5975         estimate D2E/DX2                !
 ! D83   D(50,8,54,56)        -114.4025         estimate D2E/DX2                !
 ! D84   D(50,8,54,57)           5.5975         estimate D2E/DX2                !
 ! D85   D(10,11,12,13)        -63.8859         estimate D2E/DX2                !
 ! D86   D(10,11,12,14)         54.1283         estimate D2E/DX2                !
 ! D87   D(10,11,12,30)        175.1611         estimate D2E/DX2                !
 ! D88   D(22,11,12,13)         72.355          estimate D2E/DX2                !
 ! D89   D(22,11,12,14)       -169.6308         estimate D2E/DX2                !
 ! D90   D(22,11,12,30)        -48.598          estimate D2E/DX2                !
 ! D91   D(10,11,16,20)        -71.7746         estimate D2E/DX2                !
 ! D92   D(10,11,16,21)         53.0774         estimate D2E/DX2                !
 ! D93   D(10,11,16,27)        165.4567         estimate D2E/DX2                !
 ! D94   D(12,11,16,20)        156.6016         estimate D2E/DX2                !
 ! D95   D(12,11,16,21)        -78.5464         estimate D2E/DX2                !
 ! D96   D(12,11,16,27)         33.8329         estimate D2E/DX2                !
 ! D97   D(11,12,30,31)        178.9606         estimate D2E/DX2                !
 ! D98   D(11,12,30,32)        -61.092          estimate D2E/DX2                !
 ! D99   D(11,12,30,33)         58.8534         estimate D2E/DX2                !
 ! D100  D(13,12,30,31)         57.3648         estimate D2E/DX2                !
 ! D101  D(13,12,30,32)        177.3121         estimate D2E/DX2                !
 ! D102  D(13,12,30,33)        -62.7424         estimate D2E/DX2                !
 ! D103  D(14,12,30,31)        -59.4237         estimate D2E/DX2                !
 ! D104  D(14,12,30,32)         60.5236         estimate D2E/DX2                !
 ! D105  D(14,12,30,33)       -179.5309         estimate D2E/DX2                !
 ! D106  D(18,15,17,20)        166.6699         estimate D2E/DX2                !
 ! D107  D(18,15,17,23)        -71.1158         estimate D2E/DX2                !
 ! D108  D(18,15,17,24)         46.4591         estimate D2E/DX2                !
 ! D109  D(19,15,17,20)        -75.1293         estimate D2E/DX2                !
 ! D110  D(19,15,17,23)         47.0849         estimate D2E/DX2                !
 ! D111  D(19,15,17,24)        164.6599         estimate D2E/DX2                !
 ! D112  D(29,15,17,20)         43.2052         estimate D2E/DX2                !
 ! D113  D(29,15,17,23)        165.4195         estimate D2E/DX2                !
 ! D114  D(29,15,17,24)        -77.0056         estimate D2E/DX2                !
 ! D115  D(17,15,29,27)        -18.6277         estimate D2E/DX2                !
 ! D116  D(17,15,29,28)        164.6099         estimate D2E/DX2                !
 ! D117  D(18,15,29,27)       -144.9435         estimate D2E/DX2                !
 ! D118  D(18,15,29,28)         38.2941         estimate D2E/DX2                !
 ! D119  D(19,15,29,27)        102.5179         estimate D2E/DX2                !
 ! D120  D(19,15,29,28)        -74.2445         estimate D2E/DX2                !
 ! D121  D(21,16,20,17)        170.4637         estimate D2E/DX2                !
 ! D122  D(21,16,20,25)        -68.1241         estimate D2E/DX2                !
 ! D123  D(21,16,20,26)         49.0351         estimate D2E/DX2                !
 ! D124  D(22,16,20,17)        -67.2411         estimate D2E/DX2                !
 ! D125  D(22,16,20,25)         54.1711         estimate D2E/DX2                !
 ! D126  D(22,16,20,26)        171.3303         estimate D2E/DX2                !
 ! D127  D(27,16,20,17)         52.487          estimate D2E/DX2                !
 ! D128  D(27,16,20,25)        173.8992         estimate D2E/DX2                !
 ! D129  D(27,16,20,26)        -68.9416         estimate D2E/DX2                !
 ! D130  D(20,16,27,29)        -28.3541         estimate D2E/DX2                !
 ! D131  D(21,16,27,29)       -150.6768         estimate D2E/DX2                !
 ! D132  D(22,16,27,29)         93.8328         estimate D2E/DX2                !
 ! D133  D(15,17,20,16)        -59.7065         estimate D2E/DX2                !
 ! D134  D(15,17,20,25)       -179.0853         estimate D2E/DX2                !
 ! D135  D(15,17,20,26)         61.8268         estimate D2E/DX2                !
 ! D136  D(23,17,20,16)        179.1208         estimate D2E/DX2                !
 ! D137  D(23,17,20,25)         59.742          estimate D2E/DX2                !
 ! D138  D(23,17,20,26)        -59.3459         estimate D2E/DX2                !
 ! D139  D(24,17,20,16)         60.8345         estimate D2E/DX2                !
 ! D140  D(24,17,20,25)        -58.5443         estimate D2E/DX2                !
 ! D141  D(24,17,20,26)       -177.6322         estimate D2E/DX2                !
 ! D142  D(16,27,29,15)         10.7351         estimate D2E/DX2                !
 ! D143  D(16,27,29,28)       -172.3878         estimate D2E/DX2                !
 --------------------------------------------------------------------------------
 Trust Radius=3.00D-01 FncErr=1.00D-07 GrdErr=1.00D-06
 Number of steps in this run=    321 maximum allowed number of steps=    342.
 GradGradGradGradGradGradGradGradGradGradGradGradGradGradGradGradGradGrad

 Leave Link  103 at Tue Oct  5 01:12:38 2021, MaxMem=  6710886400 cpu:         0.2
 (Enter /usr/local/gqt/g09/l202.exe)
 Stoichiometry    C18H34N2O3
 Framework group  C1[X(C18H34N2O3)]
 Deg. of freedom   165
 Full point group                 C1      NOp   1
 Largest Abelian subgroup         C1      NOp   1
 Largest concise Abelian subgroup C1      NOp   1
                         Standard orientation:                         
 ---------------------------------------------------------------------
 Center     Atomic      Atomic             Coordinates (Angstroms)
 Number     Number       Type             X           Y           Z
 ---------------------------------------------------------------------
      1          6           0       -1.690171   -0.074146    0.258984
      2          6           0       -3.815248   -0.544730   -0.367216
      3          6           0       -3.679014    0.797305   -0.384593
      4          7           0       -2.595723   -1.052438    0.026737
      5          7           0       -2.381198    1.059771   -0.001227
      6          6           0       -2.318016   -2.464494    0.172591
      7          1           0       -1.290182   -2.578182    0.495207
      8          6           0       -1.824529    2.390477    0.109611
      9          1           0       -0.792013    2.302833    0.425625
     10          1           0        0.073702   -0.233363    0.784054
     11          8           0        1.023515   -0.324658    1.068578
     12          6           0        1.134336    0.017082    2.429002
     13          1           0        0.875009    1.070698    2.583748
     14          1           0        0.434940   -0.572211    3.031568
     15          6           0        5.560053   -1.070237   -1.039361
     16          6           0        3.552208    0.992545   -0.878789
     17          6           0        4.238194   -1.196801   -1.777449
     18          1           0        5.856987   -1.995324   -0.552465
     19          1           0        6.358759   -0.826873   -1.743982
     20          6           0        3.738875    0.188698   -2.139253
     21          1           0        3.355830    2.039696   -1.085569
     22          1           0        2.738138    0.589928   -0.276138
     23          1           0        4.370932   -1.814291   -2.662830
     24          1           0        3.503056   -1.696175   -1.145987
     25          1           0        2.782470    0.144310   -2.657419
     26          1           0        4.446733    0.683642   -2.805699
     27          8           0        4.728170    1.001007   -0.034840
     28          8           0        6.489855    0.054694    0.837636
     29          6           0        5.619289    0.015710   -0.000072
     30          6           0        2.546026   -0.230007    2.906075
     31          1           0        2.651608    0.047576    3.953849
     32          1           0        2.807536   -1.282314    2.804861
     33          1           0        3.257493    0.353842    2.324448
     34          6           0       -4.687193    1.905711   -0.740419
     35          1           0       -4.179190    2.851627   -0.960156
     36          1           0       -5.280717    1.637309   -1.621779
     37          1           0       -5.385340    2.089774    0.084094
     38          6           0       -5.026600   -1.436479   -0.697383
     39          1           0       -5.928567   -0.837505   -0.867072
     40          1           0       -4.850108   -2.030673   -1.601204
     41          1           0       -5.242723   -2.134425    0.119483
     42          6           0       -3.252025   -3.090878    1.224670
     43          1           0       -4.119785   -2.450496    1.419636
     44          1           0       -3.628706   -4.065514    0.894059
     45          1           0       -2.733600   -3.243519    2.178108
     46          6           0       -2.511495   -3.193573   -1.170022
     47          1           0       -3.554285   -3.145166   -1.503719
     48          1           0       -1.891931   -2.750114   -1.957799
     49          1           0       -2.238661   -4.252162   -1.092176
     50          6           0       -2.604827    3.216284    1.149215
     51          1           0       -2.161258    4.209296    1.284431
     52          1           0       -3.647625    3.359388    0.843927
     53          1           0       -2.612133    2.722079    2.127385
     54          6           0       -1.878599    3.112304   -1.249669
     55          1           0       -0.873349    3.279513   -1.652933
     56          1           0       -2.438120    2.528572   -1.989466
     57          1           0       -2.366358    4.089914   -1.163190
 ---------------------------------------------------------------------
 Rotational constants (GHZ):      0.3366125      0.1026695      0.0936659
 Leave Link  202 at Tue Oct  5 01:12:38 2021, MaxMem=  6710886400 cpu:         0.0
 (Enter /usr/local/gqt/g09/l301.exe)
 Standard basis: 6-311+G(d,p) (5D, 7F)
 Ernie: Thresh=  0.10000D-02 Tol=  0.10000D-05 Strict=F.
 There are   733 symmetry adapted cartesian basis functions of A   symmetry.
 There are   710 symmetry adapted basis functions of A   symmetry.
   710 basis functions,  1100 primitive gaussians,   733 cartesian basis functions
    90 alpha electrons       90 beta electrons
       nuclear repulsion energy      2028.9317389114 Hartrees.
 IExCor= 5547 DFT=T Ex+Corr=N12SX ExCW=0 ScaHFX=  0.250000
 ScaDFX=  1.000000  1.000000  1.000000  1.000000 ScalE2=  1.000000  1.000000
 IRadAn=      0 IRanWt=     -1 IRanGd=            0 ICorTp=0 IEmpDi=  4
  HFx wShort=  0.110000 wLong=  0.000000 cFull=  0.000000 cShort=  1.000000 cLong=  0.000000
  DFx wShort=  0.110000 wLong=  0.000000 cFull=  0.000000 cShort=  1.000000 cLong=  0.000000
 NAtoms=   57 NActive=   57 NUniq=   57 SFac= 1.00D+00 NAtFMM=   60 NAOKFM=F Big=F
 Integral buffers will be    131072 words long.
 Raffenetti 2 integral format.
 Two-electron integral symmetry is turned on.
 ------------------------------------------------------------------------------
 Polarizable Continuum Model (PCM)
 =================================
 Model                : PCM (using non-symmetric T matrix).
 Atomic radii         : UFF (Universal Force Field).
 Polarization charges : Total charges.
 Charge compensation  : None.
 Solution method      : On-the-fly selection.
 Cavity type          : Scaled VdW (van der Waals Surface) (Alpha=1.100).
 Cavity algorithm     : GePol (No added spheres)
                        Default sphere list used, NSphG=   57.
                        Lebedev-Laikov grids with approx.  5.0 points / Ang**2.
                        Smoothing algorithm: Karplus/York (Gamma=1.0000).
                        Polarization charges: spherical gaussians, with
                                              point-specific exponents (IZeta= 3).
                        Self-potential: point-specific (ISelfS= 7).
                        Self-field    : sphere-specific E.n sum rule (ISelfD= 2).
 1st derivatives      : Analytical E(r).r(x)/FMM algorithm (CHGder, D1EAlg=3).
                        Cavity 1st derivative terms included.
 Solvent              : Ethanol, Eps=  24.852000 Eps(inf)=   1.852593
 ------------------------------------------------------------------------------
 GePol: Number of generator spheres                  =      57
 GePol: Total number of spheres                      =      57
 GePol: Number of exposed spheres                    =      57 (100.00%)
 GePol: Number of points                             =    3934
 GePol: Average weight of points                     =       0.13
 GePol: Minimum weight of points                     =   0.20D-10
 GePol: Maximum weight of points                     =    0.20577
 GePol: Number of points with low weight             =     291
 GePol: Fraction of low-weight points (<1% of avg)   =       7.40%
 GePol: Cavity surface area                          =    499.625 Ang**2
 GePol: Cavity volume                                =    527.053 Ang**3
 Leave Link  301 at Tue Oct  5 01:12:38 2021, MaxMem=  6710886400 cpu:         0.8
 (Enter /usr/local/gqt/g09/l302.exe)
 NPDir=0 NMtPBC=     1 NCelOv=     1 NCel=       1 NClECP=     1 NCelD=      1
         NCelK=      1 NCelE2=     1 NClLst=     1 CellRange=     0.0.
 One-electron integrals computed using PRISM.
 NBasis=   710 RedAO= T EigKep=  5.74D-06  NBF=   710
 NBsUse=   709 1.00D-06 EigRej=  3.78D-07 NBFU=   709
 Precomputing XC quadrature grid using
 IXCGrd= 4 IRadAn=           0 IRanWt=          -1 IRanGd=           0 AccXCQ= 0.00D+00.
 Generated NRdTot=       0 NPtTot=           0 NUsed=           0 NTot=          32
 NSgBfM=   721   721   721   721   721 MxSgAt=    57 MxSgA2=    57.
 Leave Link  302 at Tue Oct  5 01:12:40 2021, MaxMem=  6710886400 cpu:        23.7
 (Enter /usr/local/gqt/g09/l303.exe)
 DipDrv:  MaxL=1.
 Leave Link  303 at Tue Oct  5 01:12:40 2021, MaxMem=  6710886400 cpu:         1.8
 (Enter /usr/local/gqt/g09/l401.exe)
 ExpMin= 4.38D-02 ExpMax= 8.59D+03 ExpMxC= 1.30D+03 IAcc=2 IRadAn=         4 AccDes= 0.00D+00
 Harris functional with IExCor= 5547 and IRadAn=       4 diagonalized for initial guess.
 HarFok:  IExCor= 5547 AccDes= 0.00D+00 IRadAn=         4 IDoV= 1 UseB2=F ITyADJ=14
 ICtDFT=  3500011 ScaDFX=  1.000000  1.000000  1.000000  1.000000
 FoFCou: FMM=F IPFlag=           0 FMFlag=      100000 FMFlg1=           0
         NFxFlg=           0 DoJE=T BraDBF=F KetDBF=T FulRan=T
         wScrn=  0.000000 ICntrl=     500 IOpCl=  0 I1Cent=   200000004 NGrid=           0
         NMat0=    1 NMatS0=      1 NMatT0=    0 NMatD0=    1 NMtDS0=    0 NMtDT0=    0
 Petite list used in FoFCou.
 Harris En= -1008.84348849025    
 JPrj=0 DoOrth=F DoCkMO=F.
 Leave Link  401 at Tue Oct  5 01:12:44 2021, MaxMem=  6710886400 cpu:        60.4
 (Enter /usr/local/gqt/g09/l502.exe)
 Closed shell SCF:
 Using DIIS extrapolation, IDIIS=  1040.
 Integral symmetry usage will be decided dynamically.
 IVT=     1647641 IEndB=     1647641 NGot=  6710886400 MDV=  6709793422
 LenX=  6709793422 LenY=  6709255400
 Requested convergence on RMS density matrix=1.00D-08 within 128 cycles.
 Requested convergence on MAX density matrix=1.00D-06.
 Requested convergence on             energy=1.00D-06.
 No special actions if energy rises.
 Fock matrices will be formed incrementally for  20 cycles.

 Cycle   1  Pass 1  IDiag  1:
 FoFJK:  IHMeth= 1 ICntrl=       0 DoSepK=T KAlg= 0 I1Cent=   0 FoldK=F
 IRaf=         1 NMat=   1 IRICut=       1 DoRegI=T DoRafI=F ISym2E= 0.
 FoFCou: FMM=F IPFlag=           0 FMFlag=      100000 FMFlg1=           0
         NFxFlg=           0 DoJE=T BraDBF=F KetDBF=F FulRan=T
         wScrn=  0.000000 ICntrl=     500 IOpCl=  0 I1Cent=           0 NGrid=           0
         NMat0=    1 NMatS0=      1 NMatT0=    0 NMatD0=    1 NMtDS0=    0 NMtDT0=    0
 Symmetry not used in FoFCou.
 Inv3:  Mode=1 IEnd=    46429068.
 Iteration    1 A*A^-1 deviation from unit magnitude is 6.44D-15 for   3918.
 Iteration    1 A*A^-1 deviation from orthogonality  is 4.10D-15 for   3044   1368.
 Iteration    1 A^-1*A deviation from unit magnitude is 6.00D-15 for   3918.
 Iteration    1 A^-1*A deviation from orthogonality  is 3.81D-10 for   2990   2971.
 Iteration    2 A*A^-1 deviation from unit magnitude is 2.89D-15 for    886.
 Iteration    2 A*A^-1 deviation from orthogonality  is 3.55D-15 for   3081   1771.
 Iteration    2 A^-1*A deviation from unit magnitude is 9.99D-16 for    814.
 Iteration    2 A^-1*A deviation from orthogonality  is 3.72D-16 for   2956   1042.
 E= -1040.91642258040    
 DIIS: error= 5.96D-02 at cycle   1 NSaved=   1.
 NSaved= 1 IEnMin= 1 EnMin= -1040.91642258040     IErMin= 1 ErrMin= 5.96D-02
 ErrMax= 5.96D-02  0.00D+00 EMaxC= 1.00D-01 BMatC= 2.55D+00 BMatP= 2.55D+00
 IDIUse=3 WtCom= 4.04D-01 WtEn= 5.96D-01
 Coeff-Com:  0.100D+01
 Coeff-En:   0.100D+01
 Coeff:      0.100D+01
 Gap=     0.243 Goal=   None    Shift=    0.000
 GapD=    0.243 DampG=1.000 DampE=0.500 DampFc=0.5000 IDamp=-1.
 Damping current iteration by 5.00D-01
 RMSDP=4.93D-03 MaxDP=7.74D-01              OVMax= 1.33D-01

 Cycle   2  Pass 1  IDiag  1:
 RMSU=  1.69D-03    CP:  8.78D-01
 E= -1041.07554580182     Delta-E=       -0.159123221422 Rises=F Damp=T
 DIIS: error= 2.67D-02 at cycle   2 NSaved=   2.
 NSaved= 2 IEnMin= 2 EnMin= -1041.07554580182     IErMin= 2 ErrMin= 2.67D-02
 ErrMax= 2.67D-02  0.00D+00 EMaxC= 1.00D-01 BMatC= 5.26D-01 BMatP= 2.55D+00
 IDIUse=3 WtCom= 7.33D-01 WtEn= 2.67D-01
 Coeff-Com: -0.486D+00 0.149D+01
 Coeff-En:   0.629D-01 0.937D+00
 Coeff:     -0.339D+00 0.134D+01
 Gap=     0.220 Goal=   None    Shift=    0.000
 RMSDP=2.94D-03 MaxDP=3.36D-01 DE=-1.59D-01 OVMax= 2.19D-01

 Cycle   3  Pass 1  IDiag  1:
 RMSU=  2.21D-03    CP:  7.47D-01  1.07D+00
 E= -1041.02252238334     Delta-E=        0.053023418478 Rises=F Damp=F
 DIIS: error= 4.16D-02 at cycle   3 NSaved=   3.
 NSaved= 3 IEnMin= 2 EnMin= -1041.07554580182     IErMin= 2 ErrMin= 2.67D-02
 ErrMax= 4.16D-02  0.00D+00 EMaxC= 1.00D-01 BMatC= 3.63D-01 BMatP= 5.26D-01
 IDIUse=3 WtCom= 5.84D-01 WtEn= 4.16D-01
 Coeff-Com: -0.394D+00 0.887D+00 0.508D+00
 Coeff-En:   0.000D+00 0.597D+00 0.403D+00
 Coeff:     -0.230D+00 0.766D+00 0.464D+00
 Gap=     0.210 Goal=   None    Shift=    0.000
 RMSDP=1.43D-03 MaxDP=8.81D-02 DE= 5.30D-02 OVMax= 1.59D-01

 Cycle   4  Pass 1  IDiag  1:
 RMSU=  5.03D-04    CP:  7.45D-01  1.52D+00  5.00D-01
 E= -1041.27541871519     Delta-E=       -0.252896331850 Rises=F Damp=F
 DIIS: error= 1.71D-02 at cycle   4 NSaved=   4.
 NSaved= 4 IEnMin= 4 EnMin= -1041.27541871519     IErMin= 4 ErrMin= 1.71D-02
 ErrMax= 1.71D-02  0.00D+00 EMaxC= 1.00D-01 BMatC= 3.91D-02 BMatP= 3.63D-01
 IDIUse=3 WtCom= 8.29D-01 WtEn= 1.71D-01
 Coeff-Com: -0.181D+00 0.410D+00 0.342D+00 0.430D+00
 Coeff-En:   0.000D+00 0.000D+00 0.723D-01 0.928D+00
 Coeff:     -0.150D+00 0.340D+00 0.296D+00 0.515D+00
 Gap=     0.205 Goal=   None    Shift=    0.000
 RMSDP=3.85D-04 MaxDP=2.82D-02 DE=-2.53D-01 OVMax= 6.99D-02

 Cycle   5  Pass 1  IDiag  1:
 RMSU=  2.42D-04    CP:  7.41D-01  1.48D+00  5.67D-01  5.26D-01
 E= -1041.29958227901     Delta-E=       -0.024163563814 Rises=F Damp=F
 DIIS: error= 5.94D-03 at cycle   5 NSaved=   5.
 NSaved= 5 IEnMin= 5 EnMin= -1041.29958227901     IErMin= 5 ErrMin= 5.94D-03
 ErrMax= 5.94D-03  0.00D+00 EMaxC= 1.00D-01 BMatC= 4.39D-03 BMatP= 3.91D-02
 IDIUse=3 WtCom= 9.41D-01 WtEn= 5.94D-02
 Coeff-Com: -0.420D-01 0.986D-01 0.111D+00 0.323D+00 0.510D+00
 Coeff-En:   0.000D+00 0.000D+00 0.000D+00 0.112D+00 0.888D+00
 Coeff:     -0.395D-01 0.927D-01 0.105D+00 0.310D+00 0.532D+00
 Gap=     0.203 Goal=   None    Shift=    0.000
 RMSDP=1.45D-04 MaxDP=2.30D-02 DE=-2.42D-02 OVMax= 2.23D-02

 Cycle   6  Pass 1  IDiag  1:
 RMSU=  8.74D-05    CP:  7.41D-01  1.48D+00  5.75D-01  6.45D-01  6.03D-01
 E= -1041.30234132691     Delta-E=       -0.002759047908 Rises=F Damp=F
 DIIS: error= 1.29D-03 at cycle   6 NSaved=   6.
 NSaved= 6 IEnMin= 6 EnMin= -1041.30234132691     IErMin= 6 ErrMin= 1.29D-03
 ErrMax= 1.29D-03  0.00D+00 EMaxC= 1.00D-01 BMatC= 3.81D-04 BMatP= 4.39D-03
 IDIUse=3 WtCom= 9.87D-01 WtEn= 1.29D-02
 Coeff-Com:  0.575D-02-0.116D-01 0.563D-02 0.104D+00 0.339D+00 0.557D+00
 Coeff-En:   0.000D+00 0.000D+00 0.000D+00 0.000D+00 0.749D-01 0.925D+00
 Coeff:      0.568D-02-0.114D-01 0.556D-02 0.102D+00 0.336D+00 0.562D+00
 Gap=     0.204 Goal=   None    Shift=    0.000
 RMSDP=4.29D-05 MaxDP=6.09D-03 DE=-2.76D-03 OVMax= 3.72D-03

 Cycle   7  Pass 1  IDiag  1:
 RMSU=  2.40D-05    CP:  7.41D-01  1.48D+00  5.77D-01  6.35D-01  6.94D-01
                    CP:  7.21D-01
 E= -1041.30262001633     Delta-E=       -0.000278689420 Rises=F Damp=F
 DIIS: error= 1.60D-04 at cycle   7 NSaved=   7.
 NSaved= 7 IEnMin= 7 EnMin= -1041.30262001633     IErMin= 7 ErrMin= 1.60D-04
 ErrMax= 1.60D-04  0.00D+00 EMaxC= 1.00D-01 BMatC= 8.72D-06 BMatP= 3.81D-04
 IDIUse=3 WtCom= 9.98D-01 WtEn= 1.60D-03
 Coeff-Com:  0.416D-02-0.879D-02-0.261D-02 0.292D-01 0.118D+00 0.249D+00
 Coeff-Com:  0.611D+00
 Coeff-En:   0.000D+00 0.000D+00 0.000D+00 0.000D+00 0.000D+00 0.000D+00
 Coeff-En:   0.100D+01
 Coeff:      0.415D-02-0.878D-02-0.261D-02 0.292D-01 0.118D+00 0.249D+00
 Coeff:      0.612D+00
 Gap=     0.204 Goal=   None    Shift=    0.000
 RMSDP=1.22D-05 MaxDP=8.73D-04 DE=-2.79D-04 OVMax= 5.07D-04

 Cycle   8  Pass 1  IDiag  1:
 RMSU=  7.49D-06    CP:  7.41D-01  1.48D+00  5.75D-01  6.38D-01  6.96D-01
                    CP:  7.34D-01  6.74D-01
 E= -1041.30262544326     Delta-E=       -0.000005426926 Rises=F Damp=F
 DIIS: error= 5.28D-05 at cycle   8 NSaved=   8.
 NSaved= 8 IEnMin= 8 EnMin= -1041.30262544326     IErMin= 8 ErrMin= 5.28D-05
 ErrMax= 5.28D-05  0.00D+00 EMaxC= 1.00D-01 BMatC= 1.56D-06 BMatP= 8.72D-06
 IDIUse=1 WtCom= 1.00D+00 WtEn= 0.00D+00
 Coeff-Com:  0.957D-03-0.202D-02-0.121D-02 0.401D-02 0.198D-01 0.627D-01
 Coeff-Com:  0.343D+00 0.573D+00
 Coeff:      0.957D-03-0.202D-02-0.121D-02 0.401D-02 0.198D-01 0.627D-01
 Coeff:      0.343D+00 0.573D+00
 Gap=     0.204 Goal=   None    Shift=    0.000
 RMSDP=3.02D-06 MaxDP=2.16D-04 DE=-5.43D-06 OVMax= 1.97D-04

 Cycle   9  Pass 1  IDiag  1:
 RMSU=  2.19D-06    CP:  7.41D-01  1.48D+00  5.76D-01  6.39D-01  6.97D-01
                    CP:  7.35D-01  6.83D-01  7.49D-01
 E= -1041.30262661244     Delta-E=       -0.000001169184 Rises=F Damp=F
 DIIS: error= 1.05D-05 at cycle   9 NSaved=   9.
 NSaved= 9 IEnMin= 9 EnMin= -1041.30262661244     IErMin= 9 ErrMin= 1.05D-05
 ErrMax= 1.05D-05  0.00D+00 EMaxC= 1.00D-01 BMatC= 7.66D-08 BMatP= 1.56D-06
 IDIUse=1 WtCom= 1.00D+00 WtEn= 0.00D+00
 Coeff-Com:  0.115D-03-0.245D-03-0.358D-03-0.510D-03-0.108D-03 0.105D-01
 Coeff-Com:  0.115D+00 0.266D+00 0.609D+00
 Coeff:      0.115D-03-0.245D-03-0.358D-03-0.510D-03-0.108D-03 0.105D-01
 Coeff:      0.115D+00 0.266D+00 0.609D+00
 Gap=     0.204 Goal=   None    Shift=    0.000
 RMSDP=1.41D-06 MaxDP=1.24D-04 DE=-1.17D-06 OVMax= 7.58D-05

 Cycle  10  Pass 1  IDiag  1:
 RMSU=  8.02D-07    CP:  7.41D-01  1.48D+00  5.76D-01  6.39D-01  6.96D-01
                    CP:  7.36D-01  7.13D-01  7.66D-01  6.73D-01
 E= -1041.30262666925     Delta-E=       -0.000000056806 Rises=F Damp=F
 DIIS: error= 3.48D-06 at cycle  10 NSaved=  10.
 NSaved=10 IEnMin=10 EnMin= -1041.30262666925     IErMin=10 ErrMin= 3.48D-06
 ErrMax= 3.48D-06  0.00D+00 EMaxC= 1.00D-01 BMatC= 8.48D-09 BMatP= 7.66D-08
 IDIUse=1 WtCom= 1.00D+00 WtEn= 0.00D+00
 Coeff-Com: -0.141D-04 0.307D-04-0.652D-04-0.581D-03-0.140D-02 0.539D-03
 Coeff-Com:  0.271D-01 0.798D-01 0.296D+00 0.599D+00
 Coeff:     -0.141D-04 0.307D-04-0.652D-04-0.581D-03-0.140D-02 0.539D-03
 Coeff:      0.271D-01 0.798D-01 0.296D+00 0.599D+00
 Gap=     0.204 Goal=   None    Shift=    0.000
 RMSDP=3.88D-07 MaxDP=4.90D-05 DE=-5.68D-08 OVMax= 1.47D-05

 Cycle  11  Pass 1  IDiag  1:
 RMSU=  2.13D-07    CP:  7.41D-01  1.48D+00  5.76D-01  6.39D-01  6.96D-01
                    CP:  7.38D-01  7.13D-01  7.67D-01  6.98D-01  6.83D-01
 E= -1041.30262667689     Delta-E=       -0.000000007642 Rises=F Damp=F
 DIIS: error= 9.99D-07 at cycle  11 NSaved=  11.
 NSaved=11 IEnMin=11 EnMin= -1041.30262667689     IErMin=11 ErrMin= 9.99D-07
 ErrMax= 9.99D-07  0.00D+00 EMaxC= 1.00D-01 BMatC= 4.57D-10 BMatP= 8.48D-09
 IDIUse=1 WtCom= 1.00D+00 WtEn= 0.00D+00
 Coeff-Com: -0.963D-05 0.188D-04 0.747D-06-0.209D-03-0.456D-03-0.312D-03
 Coeff-Com:  0.156D-02 0.104D-01 0.581D-01 0.205D+00 0.726D+00
 Coeff:     -0.963D-05 0.188D-04 0.747D-06-0.209D-03-0.456D-03-0.312D-03
 Coeff:      0.156D-02 0.104D-01 0.581D-01 0.205D+00 0.726D+00
 Gap=     0.204 Goal=   None    Shift=    0.000
 RMSDP=7.85D-08 MaxDP=1.25D-05 DE=-7.64D-09 OVMax= 5.36D-06

 Cycle  12  Pass 1  IDiag  1:
 RMSU=  5.00D-08    CP:  7.41D-01  1.48D+00  5.76D-01  6.39D-01  6.96D-01
                    CP:  7.37D-01  7.12D-01  7.69D-01  7.09D-01  7.13D-01
                    CP:  8.36D-01
 E= -1041.30262667726     Delta-E=       -0.000000000372 Rises=F Damp=F
 DIIS: error= 3.13D-07 at cycle  12 NSaved=  12.
 NSaved=12 IEnMin=12 EnMin= -1041.30262667726     IErMin=12 ErrMin= 3.13D-07
 ErrMax= 3.13D-07  0.00D+00 EMaxC= 1.00D-01 BMatC= 6.82D-11 BMatP= 4.57D-10
 IDIUse=1 WtCom= 1.00D+00 WtEn= 0.00D+00
 Coeff-Com: -0.508D-05 0.946D-05 0.860D-05-0.656D-04-0.141D-03-0.258D-03
 Coeff-Com: -0.212D-02-0.251D-02 0.511D-03 0.452D-01 0.373D+00 0.586D+00
 Coeff:     -0.508D-05 0.946D-05 0.860D-05-0.656D-04-0.141D-03-0.258D-03
 Coeff:     -0.212D-02-0.251D-02 0.511D-03 0.452D-01 0.373D+00 0.586D+00
 Gap=     0.204 Goal=   None    Shift=    0.000
 RMSDP=3.57D-08 MaxDP=5.38D-06 DE=-3.72D-10 OVMax= 2.13D-06

 Cycle  13  Pass 1  IDiag  1:
 RMSU=  2.29D-08    CP:  7.41D-01  1.48D+00  5.76D-01  6.39D-01  6.96D-01
                    CP:  7.37D-01  7.12D-01  7.70D-01  7.08D-01  7.26D-01
                    CP:  8.47D-01  6.97D-01
 E= -1041.30262667725     Delta-E=        0.000000000014 Rises=F Damp=F
 DIIS: error= 9.43D-08 at cycle  13 NSaved=  13.
 NSaved=13 IEnMin=12 EnMin= -1041.30262667726     IErMin=13 ErrMin= 9.43D-08
 ErrMax= 9.43D-08  0.00D+00 EMaxC= 1.00D-01 BMatC= 6.98D-12 BMatP= 6.82D-11
 IDIUse=1 WtCom= 1.00D+00 WtEn= 0.00D+00
 Coeff-Com: -0.148D-05 0.263D-05 0.383D-05-0.161D-04-0.331D-04-0.875D-04
 Coeff-Com: -0.115D-02-0.203D-02-0.461D-02 0.387D-02 0.128D+00 0.305D+00
 Coeff-Com:  0.571D+00
 Coeff:     -0.148D-05 0.263D-05 0.383D-05-0.161D-04-0.331D-04-0.875D-04
 Coeff:     -0.115D-02-0.203D-02-0.461D-02 0.387D-02 0.128D+00 0.305D+00
 Coeff:      0.571D+00
 Gap=     0.204 Goal=   None    Shift=    0.000
 RMSDP=1.23D-08 MaxDP=9.31D-07 DE= 1.41D-11 OVMax= 1.28D-06

 Cycle  14  Pass 1  IDiag  1:
 RMSU=  8.36D-09    CP:  7.41D-01  1.48D+00  5.76D-01  6.39D-01  6.96D-01
                    CP:  7.37D-01  7.12D-01  7.70D-01  7.08D-01  7.25D-01
                    CP:  8.61D-01  7.33D-01  6.84D-01
 E= -1041.30262667735     Delta-E=       -0.000000000101 Rises=F Damp=F
 DIIS: error= 5.53D-08 at cycle  14 NSaved=  14.
 NSaved=14 IEnMin=14 EnMin= -1041.30262667735     IErMin=14 ErrMin= 5.53D-08
 ErrMax= 5.53D-08  0.00D+00 EMaxC= 1.00D-01 BMatC= 1.62D-12 BMatP= 6.98D-12
 IDIUse=1 WtCom= 1.00D+00 WtEn= 0.00D+00
 Coeff-Com: -0.255D-06 0.402D-06 0.122D-05-0.193D-05-0.390D-05-0.196D-04
 Coeff-Com: -0.435D-03-0.908D-03-0.277D-02-0.349D-02 0.329D-01 0.114D+00
 Coeff-Com:  0.365D+00 0.495D+00
 Coeff:     -0.255D-06 0.402D-06 0.122D-05-0.193D-05-0.390D-05-0.196D-04
 Coeff:     -0.435D-03-0.908D-03-0.277D-02-0.349D-02 0.329D-01 0.114D+00
 Coeff:      0.365D+00 0.495D+00
 Gap=     0.204 Goal=   None    Shift=    0.000
 RMSDP=4.82D-09 MaxDP=4.50D-07 DE=-1.01D-10 OVMax= 4.47D-07

 Error on total polarization charges =  0.01916
 SCF Done:  E(RN12SX) =  -1041.30262668     A.U. after   14 cycles
            NFock= 14  Conv=0.48D-08     -V/T= 2.0058
 KE= 1.035264213121D+03 PE=-6.483063058539D+03 EE= 2.377564479829D+03
 Leave Link  502 at Tue Oct  5 01:22:34 2021, MaxMem=  6710886400 cpu:      9367.8
 (Enter /usr/local/gqt/g09/l601.exe)
 Copying SCF densities to generalized density rwf, IOpCl= 0 IROHF=0.

 **********************************************************************

            Population analysis using the SCF density.

 **********************************************************************

 Orbital symmetries:
       Occupied  (A) (A) (A) (A) (A) (A) (A) (A) (A) (A) (A) (A)
                 (A) (A) (A) (A) (A) (A) (A) (A) (A) (A) (A) (A)
                 (A) (A) (A) (A) (A) (A) (A) (A) (A) (A) (A) (A)
                 (A) (A) (A) (A) (A) (A) (A) (A) (A) (A) (A) (A)
                 (A) (A) (A) (A) (A) (A) (A) (A) (A) (A) (A) (A)
                 (A) (A) (A) (A) (A) (A) (A) (A) (A) (A) (A) (A)
                 (A) (A) (A) (A) (A) (A) (A) (A) (A) (A) (A) (A)
                 (A) (A) (A) (A) (A) (A)
       Virtual   (A) (A) (A) (A) (A) (A) (A) (A) (A) (A) (A) (A)
                 (A) (A) (A) (A) (A) (A) (A) (A) (A) (A) (A) (A)
                 (A) (A) (A) (A) (A) (A) (A) (A) (A) (A) (A) (A)
                 (A) (A) (A) (A) (A) (A) (A) (A) (A) (A) (A) (A)
                 (A) (A) (A) (A) (A) (A) (A) (A) (A) (A) (A) (A)
                 (A) (A) (A) (A) (A) (A) (A) (A) (A) (A) (A) (A)
                 (A) (A) (A) (A) (A) (A) (A) (A) (A) (A) (A) (A)
                 (A) (A) (A) (A) (A) (A) (A) (A) (A) (A) (A) (A)
                 (A) (A) (A) (A) (A) (A) (A) (A) (A) (A) (A) (A)
                 (A) (A) (A) (A) (A) (A) (A) (A) (A) (A) (A) (A)
                 (A) (A) (A) (A) (A) (A) (A) (A) (A) (A) (A) (A)
                 (A) (A) (A) (A) (A) (A) (A) (A) (A) (A) (A) (A)
                 (A) (A) (A) (A) (A) (A) (A) (A) (A) (A) (A) (A)
                 (A) (A) (A) (A) (A) (A) (A) (A) (A) (A) (A) (A)
                 (A) (A) (A) (A) (A) (A) (A) (A) (A) (A) (A) (A)
                 (A) (A) (A) (A) (A) (A) (A) (A) (A) (A) (A) (A)
                 (A) (A) (A) (A) (A) (A) (A) (A) (A) (A) (A) (A)
                 (A) (A) (A) (A) (A) (A) (A) (A) (A) (A) (A) (A)
                 (A) (A) (A) (A) (A) (A) (A) (A) (A) (A) (A) (A)
                 (A) (A) (A) (A) (A) (A) (A) (A) (A) (A) (A) (A)
                 (A) (A) (A) (A) (A) (A) (A) (A) (A) (A) (A) (A)
                 (A) (A) (A) (A) (A) (A) (A) (A) (A) (A) (A) (A)
                 (A) (A) (A) (A) (A) (A) (A) (A) (A) (A) (A) (A)
                 (A) (A) (A) (A) (A) (A) (A) (A) (A) (A) (A) (A)
                 (A) (A) (A) (A) (A) (A) (A) (A) (A) (A) (A) (A)
                 (A) (A) (A) (A) (A) (A) (A) (A) (A) (A) (A) (A)
                 (A) (A) (A) (A) (A) (A) (A) (A) (A) (A) (A) (A)
                 (A) (A) (A) (A) (A) (A) (A) (A) (A) (A) (A) (A)
                 (A) (A) (A) (A) (A) (A) (A) (A) (A) (A) (A) (A)
                 (A) (A) (A) (A) (A) (A) (A) (A) (A) (A) (A) (A)
                 (A) (A) (A) (A) (A) (A) (A) (A) (A) (A) (A) (A)
                 (A) (A) (A) (A) (A) (A) (A) (A) (A) (A) (A) (A)
                 (A) (A) (A) (A) (A) (A) (A) (A) (A) (A) (A) (A)
                 (A) (A) (A) (A) (A) (A) (A) (A) (A) (A) (A) (A)
                 (A) (A) (A) (A) (A) (A) (A) (A) (A) (A) (A) (A)
                 (A) (A) (A) (A) (A) (A) (A) (A) (A) (A) (A) (A)
                 (A) (A) (A) (A) (A) (A) (A) (A) (A) (A) (A) (A)
                 (A) (A) (A) (A) (A) (A) (A) (A) (A) (A) (A) (A)
                 (A) (A) (A) (A) (A) (A) (A) (A) (A) (A) (A) (A)
                 (A) (A) (A) (A) (A) (A) (A) (A) (A) (A) (A) (A)
                 (A) (A) (A) (A) (A) (A) (A) (A) (A) (A) (A) (A)
                 (A) (A) (A) (A) (A) (A) (A) (A) (A) (A) (A) (A)
                 (A) (A) (A) (A) (A) (A) (A) (A) (A) (A) (A) (A)
                 (A) (A) (A) (A) (A) (A) (A) (A) (A) (A) (A) (A)
                 (A) (A) (A) (A) (A) (A) (A) (A) (A) (A) (A) (A)
                 (A) (A) (A) (A) (A) (A) (A) (A) (A) (A) (A) (A)
                 (A) (A) (A) (A) (A) (A) (A) (A) (A) (A) (A) (A)
                 (A) (A) (A) (A) (A) (A) (A) (A) (A) (A) (A) (A)
                 (A) (A) (A) (A) (A) (A) (A) (A) (A) (A) (A) (A)
                 (A) (A) (A) (A) (A) (A) (A) (A) (A) (A) (A) (A)
                 (A) (A) (A) (A) (A) (A) (A) (A) (A) (A) (A) (A)
                 (A) (A) (A) (A) (A) (A) (A)
 The electronic state is 1-A.
 Alpha  occ. eigenvalues --  -19.21671 -19.15486 -19.13164 -14.40969 -14.40955
 Alpha  occ. eigenvalues --  -10.35991 -10.27352 -10.26823 -10.26757 -10.25684
 Alpha  occ. eigenvalues --  -10.25576 -10.24855 -10.23928 -10.23336 -10.22696
 Alpha  occ. eigenvalues --  -10.22686 -10.22375 -10.22262 -10.21199 -10.21101
 Alpha  occ. eigenvalues --  -10.21057 -10.21010 -10.19661  -1.10514  -1.03723
 Alpha  occ. eigenvalues --   -1.01551  -0.98184  -0.93112  -0.82195  -0.81856
 Alpha  occ. eigenvalues --   -0.78684  -0.76561  -0.76534  -0.73655  -0.72973
 Alpha  occ. eigenvalues --   -0.69019  -0.68968  -0.67844  -0.67714  -0.64881
 Alpha  occ. eigenvalues --   -0.62716  -0.60963  -0.59473  -0.57433  -0.54918
 Alpha  occ. eigenvalues --   -0.54195  -0.51138  -0.49820  -0.48647  -0.48458
 Alpha  occ. eigenvalues --   -0.48442  -0.47402  -0.47398  -0.45502  -0.44880
 Alpha  occ. eigenvalues --   -0.44632  -0.44270  -0.44205  -0.43315  -0.42703
 Alpha  occ. eigenvalues --   -0.42271  -0.41950  -0.41692  -0.40793  -0.40037
 Alpha  occ. eigenvalues --   -0.39726  -0.39647  -0.38920  -0.38155  -0.37640
 Alpha  occ. eigenvalues --   -0.37348  -0.37147  -0.36741  -0.36229  -0.36181
 Alpha  occ. eigenvalues --   -0.35309  -0.34892  -0.34713  -0.34258  -0.33530
 Alpha  occ. eigenvalues --   -0.33106  -0.32953  -0.32379  -0.31526  -0.29497
 Alpha  occ. eigenvalues --   -0.27602  -0.26891  -0.24932  -0.23103  -0.21835
 Alpha virt. eigenvalues --   -0.01414  -0.00966  -0.00193  -0.00050   0.00206
 Alpha virt. eigenvalues --    0.00838   0.01096   0.01336   0.01416   0.01777
 Alpha virt. eigenvalues --    0.02127   0.02264   0.02813   0.02920   0.03300
 Alpha virt. eigenvalues --    0.03456   0.03912   0.04466   0.04784   0.04927
 Alpha virt. eigenvalues --    0.04960   0.05145   0.05803   0.05860   0.06267
 Alpha virt. eigenvalues --    0.06533   0.06854   0.06979   0.07420   0.07636
 Alpha virt. eigenvalues --    0.07912   0.08108   0.08333   0.08527   0.08964
 Alpha virt. eigenvalues --    0.09088   0.09415   0.09788   0.09925   0.10360
 Alpha virt. eigenvalues --    0.10416   0.10781   0.11174   0.11233   0.11480
 Alpha virt. eigenvalues --    0.11802   0.12118   0.12308   0.12565   0.12619
 Alpha virt. eigenvalues --    0.13206   0.13391   0.13655   0.13964   0.14174
 Alpha virt. eigenvalues --    0.14638   0.15041   0.15160   0.15897   0.16011
 Alpha virt. eigenvalues --    0.16363   0.16488   0.16718   0.16886   0.17353
 Alpha virt. eigenvalues --    0.17426   0.17598   0.17803   0.18215   0.18390
 Alpha virt. eigenvalues --    0.18797   0.18863   0.18985   0.19499   0.19754
 Alpha virt. eigenvalues --    0.19958   0.20085   0.20176   0.20438   0.20752
 Alpha virt. eigenvalues --    0.20927   0.21068   0.21191   0.21530   0.21814
 Alpha virt. eigenvalues --    0.22098   0.22420   0.22589   0.22794   0.22941
 Alpha virt. eigenvalues --    0.23582   0.24033   0.24228   0.24703   0.24793
 Alpha virt. eigenvalues --    0.25078   0.25328   0.25551   0.25811   0.26138
 Alpha virt. eigenvalues --    0.26354   0.26750   0.26794   0.27102   0.27380
 Alpha virt. eigenvalues --    0.27775   0.28163   0.28397   0.28458   0.28724
 Alpha virt. eigenvalues --    0.29086   0.29207   0.29629   0.29830   0.29980
 Alpha virt. eigenvalues --    0.30188   0.30522   0.30672   0.31285   0.31646
 Alpha virt. eigenvalues --    0.31753   0.32067   0.32262   0.32885   0.33050
 Alpha virt. eigenvalues --    0.33564   0.33903   0.34194   0.34748   0.35216
 Alpha virt. eigenvalues --    0.35691   0.36307   0.36635   0.37134   0.37273
 Alpha virt. eigenvalues --    0.37520   0.37933   0.38906   0.39492   0.39976
 Alpha virt. eigenvalues --    0.40256   0.40897   0.41321   0.41849   0.42050
 Alpha virt. eigenvalues --    0.42934   0.43965   0.44132   0.44401   0.45196
 Alpha virt. eigenvalues --    0.45443   0.46236   0.46474   0.46824   0.47547
 Alpha virt. eigenvalues --    0.48341   0.48544   0.49238   0.50006   0.50430
 Alpha virt. eigenvalues --    0.50780   0.51242   0.51500   0.52131   0.52666
 Alpha virt. eigenvalues --    0.53248   0.54139   0.54214   0.54804   0.55239
 Alpha virt. eigenvalues --    0.56415   0.57225   0.57272   0.57644   0.58004
 Alpha virt. eigenvalues --    0.58448   0.59078   0.59937   0.60220   0.61277
 Alpha virt. eigenvalues --    0.61409   0.61823   0.62236   0.62603   0.62859
 Alpha virt. eigenvalues --    0.63248   0.63645   0.64378   0.64769   0.65151
 Alpha virt. eigenvalues --    0.65449   0.66160   0.66441   0.66692   0.67182
 Alpha virt. eigenvalues --    0.67483   0.67770   0.68441   0.68812   0.69208
 Alpha virt. eigenvalues --    0.69681   0.69711   0.70062   0.70419   0.70560
 Alpha virt. eigenvalues --    0.71133   0.71380   0.71692   0.72002   0.72228
 Alpha virt. eigenvalues --    0.72652   0.72978   0.73626   0.74033   0.74580
 Alpha virt. eigenvalues --    0.74702   0.75274   0.75328   0.75523   0.75717
 Alpha virt. eigenvalues --    0.76908   0.77297   0.77670   0.77954   0.78401
 Alpha virt. eigenvalues --    0.78879   0.79041   0.79611   0.80054   0.80961
 Alpha virt. eigenvalues --    0.82202   0.82447   0.83641   0.85560   0.85824
 Alpha virt. eigenvalues --    0.86726   0.87449   0.89062   0.90774   0.91025
 Alpha virt. eigenvalues --    0.91727   0.94110   0.94195   0.96120   0.97562
 Alpha virt. eigenvalues --    0.97911   0.98656   0.98912   0.99759   1.01512
 Alpha virt. eigenvalues --    1.01675   1.02528   1.03308   1.04355   1.04475
 Alpha virt. eigenvalues --    1.05702   1.06358   1.07079   1.08096   1.09080
 Alpha virt. eigenvalues --    1.10397   1.11451   1.11945   1.13334   1.13677
 Alpha virt. eigenvalues --    1.14940   1.15939   1.16385   1.16834   1.17886
 Alpha virt. eigenvalues --    1.19204   1.19246   1.19713   1.21320   1.21892
 Alpha virt. eigenvalues --    1.22289   1.23205   1.24543   1.25085   1.26091
 Alpha virt. eigenvalues --    1.26505   1.27183   1.27769   1.28118   1.29621
 Alpha virt. eigenvalues --    1.31197   1.32759   1.33287   1.34814   1.35016
 Alpha virt. eigenvalues --    1.36507   1.37351   1.38126   1.39517   1.40214
 Alpha virt. eigenvalues --    1.41085   1.41311   1.42596   1.43436   1.44589
 Alpha virt. eigenvalues --    1.45622   1.46425   1.46970   1.47248   1.47688
 Alpha virt. eigenvalues --    1.49208   1.49727   1.50153   1.50947   1.51284
 Alpha virt. eigenvalues --    1.52659   1.53692   1.54719   1.55006   1.55432
 Alpha virt. eigenvalues --    1.56108   1.56394   1.56621   1.56792   1.57644
 Alpha virt. eigenvalues --    1.57837   1.57931   1.58476   1.59279   1.59497
 Alpha virt. eigenvalues --    1.60112   1.60689   1.60913   1.61123   1.61768
 Alpha virt. eigenvalues --    1.61964   1.62292   1.62548   1.62923   1.63447
 Alpha virt. eigenvalues --    1.64258   1.64480   1.64685   1.65658   1.66001
 Alpha virt. eigenvalues --    1.66848   1.67534   1.67727   1.68239   1.68740
 Alpha virt. eigenvalues --    1.69130   1.69741   1.69865   1.70219   1.71735
 Alpha virt. eigenvalues --    1.72789   1.72921   1.73393   1.74152   1.74925
 Alpha virt. eigenvalues --    1.75106   1.75182   1.75687   1.76575   1.77079
 Alpha virt. eigenvalues --    1.77603   1.77756   1.78496   1.78746   1.79571
 Alpha virt. eigenvalues --    1.80267   1.80487   1.81562   1.81924   1.82566
 Alpha virt. eigenvalues --    1.83183   1.84189   1.84986   1.85548   1.86903
 Alpha virt. eigenvalues --    1.87581   1.88209   1.89296   1.89545   1.90404
 Alpha virt. eigenvalues --    1.91175   1.91561   1.92474   1.94435   1.95155
 Alpha virt. eigenvalues --    1.96474   1.96761   1.97834   1.99563   2.00227
 Alpha virt. eigenvalues --    2.00831   2.01499   2.03877   2.04078   2.05672
 Alpha virt. eigenvalues --    2.06401   2.07483   2.08409   2.08779   2.09838
 Alpha virt. eigenvalues --    2.12072   2.12489   2.14014   2.14112   2.14975
 Alpha virt. eigenvalues --    2.15872   2.17353   2.18633   2.20209   2.20766
 Alpha virt. eigenvalues --    2.21669   2.22656   2.22992   2.24028   2.24317
 Alpha virt. eigenvalues --    2.25010   2.25597   2.27222   2.27992   2.28241
 Alpha virt. eigenvalues --    2.28923   2.30162   2.30753   2.31906   2.32217
 Alpha virt. eigenvalues --    2.33727   2.34729   2.34905   2.36474   2.36556
 Alpha virt. eigenvalues --    2.38058   2.39708   2.42896   2.43972   2.44403
 Alpha virt. eigenvalues --    2.45540   2.47235   2.47706   2.48715   2.49137
 Alpha virt. eigenvalues --    2.49417   2.49819   2.50247   2.50549   2.51424
 Alpha virt. eigenvalues --    2.51885   2.52355   2.52700   2.53185   2.53747
 Alpha virt. eigenvalues --    2.54348   2.54731   2.54903   2.55323   2.57039
 Alpha virt. eigenvalues --    2.57327   2.57686   2.58043   2.59298   2.59948
 Alpha virt. eigenvalues --    2.61043   2.61565   2.62252   2.62554   2.63106
 Alpha virt. eigenvalues --    2.63810   2.64589   2.65118   2.65726   2.66372
 Alpha virt. eigenvalues --    2.66825   2.67982   2.68787   2.69190   2.69753
 Alpha virt. eigenvalues --    2.70106   2.71154   2.71601   2.72026   2.72694
 Alpha virt. eigenvalues --    2.73553   2.73645   2.74777   2.75866   2.77088
 Alpha virt. eigenvalues --    2.77195   2.78603   2.79106   2.80218   2.80396
 Alpha virt. eigenvalues --    2.80860   2.81522   2.82411   2.83373   2.83647
 Alpha virt. eigenvalues --    2.84501   2.85610   2.86588   2.88193   2.89117
 Alpha virt. eigenvalues --    2.89558   2.90587   2.90889   2.91291   2.92863
 Alpha virt. eigenvalues --    2.95013   2.96091   2.96226   2.97468   2.98364
 Alpha virt. eigenvalues --    2.98733   2.99375   3.00273   3.01981   3.03627
 Alpha virt. eigenvalues --    3.04507   3.05401   3.05751   3.08297   3.09809
 Alpha virt. eigenvalues --    3.12157   3.13577   3.16068   3.16963   3.17684
 Alpha virt. eigenvalues --    3.19073   3.23139   3.25075   3.26873   3.28186
 Alpha virt. eigenvalues --    3.28773   3.29453   3.34851   3.36484   3.37982
 Alpha virt. eigenvalues --    3.38561   3.39275   3.41811   3.46920   3.47388
 Alpha virt. eigenvalues --    3.55588   3.57945   3.65285   3.70316   3.70575
 Alpha virt. eigenvalues --    3.72261   3.77093   3.77969   3.78048   3.79486
 Alpha virt. eigenvalues --    3.79890   3.80805   3.81767   3.82081   3.82230
 Alpha virt. eigenvalues --    3.83227   3.83517   3.84129   3.84360   3.84714
 Alpha virt. eigenvalues --    3.85560   3.85777   3.87587   3.90454   3.92429
 Alpha virt. eigenvalues --    3.93180   3.96288   3.98733   3.99703   4.01771
 Alpha virt. eigenvalues --    4.01909   4.06137   4.09839   4.12476   4.18529
 Alpha virt. eigenvalues --    4.20066   4.21879   4.28781   4.29086   4.30805
 Alpha virt. eigenvalues --    4.31160   4.38622   4.38919   4.70779   5.00129
 Alpha virt. eigenvalues --    5.00665   5.01637   5.01937   5.06169   5.11304
 Alpha virt. eigenvalues --    5.28353   5.28443   5.42545   5.57123   5.73131
 Alpha virt. eigenvalues --    5.86089  23.58908  23.72870  23.74000  23.74203
 Alpha virt. eigenvalues --   23.75549  23.77666  23.79457  23.79748  23.83868
 Alpha virt. eigenvalues --   23.84696  23.85156  23.85535  23.86061  23.88466
 Alpha virt. eigenvalues --   23.89560  23.91141  23.96192  24.11252  35.32835
 Alpha virt. eigenvalues --   35.44438  49.58823  49.67922  49.73065
          Condensed to atoms (all electrons):
 Mulliken charges:
               1
     1  C   -0.400519
     2  C    0.193302
     3  C    0.189614
     4  N    0.539543
     5  N    0.577332
     6  C   -0.365970
     7  H    0.187079
     8  C   -0.359685
     9  H    0.192895
    10  H    0.512321
    11  O   -0.487489
    12  C   -0.106999
    13  H    0.149450
    14  H    0.153019
    15  C   -0.327122
    16  C   -0.289559
    17  C   -0.260987
    18  H    0.215842
    19  H    0.226482
    20  C   -0.400116
    21  H    0.183283
    22  H    0.261203
    23  H    0.187252
    24  H    0.190102
    25  H    0.194890
    26  H    0.189654
    27  O   -0.097034
    28  O   -0.394373
    29  C    0.112386
    30  C   -0.651176
    31  H    0.160891
    32  H    0.164049
    33  H    0.158394
    34  C   -1.014142
    35  H    0.193909
    36  H    0.190977
    37  H    0.213352
    38  C   -0.919034
    39  H    0.183864
    40  H    0.192941
    41  H    0.191519
    42  C   -0.519833
    43  H    0.160480
    44  H    0.176558
    45  H    0.177802
    46  C   -0.502535
    47  H    0.164728
    48  H    0.165832
    49  H    0.175669
    50  C   -0.519234
    51  H    0.176514
    52  H    0.185912
[...]
 413,-0.00000393,-0.00002897,-0.00001004,0.00000369,0.00001818,-0.00000
 108,0.00000358,-0.00001117,-0.00000289,0.00001005,0.00000136,-0.000001
 07,-0.00000081,0.00000282,0.00000113,-0.00000103,0.00000126,0.00000003
 ,-0.00001799,0.00002780,0.00000003,-0.00000078,-0.00000153,0.00000004,
 -0.00000008,0.00000038,-0.00000026,0.00000014,-0.00000005,0.00000359,0
 .00000206,-0.00000367,-0.00004719,0.00001600,-0.00003861,-0.00001253,-
 0.00000572,0.00000197,0.00000062,0.00000061,0.00000036,-0.00000064,-0.
 00000072,-0.00000066,-0.00000658,0.00000109,-0.00000247,-0.00000127,0.
 00000115,-0.00000028,0.00000108,-0.00000053,0.00000049,0.00000137,-0.0
 0000036,0.00000185,-0.00000814,0.00000427,-0.00000619,0.00000123,0.000
 00154,0.00000335,-0.00000017,-0.00000032,-0.00000023,0.00000209,-0.000
 00028,0.00000180,-0.00000154,0.00000101,-0.00000094,-0.00018313,0.0001
 6969,-0.00002757,0.00020360,-0.00016840,-0.00000900,-0.00004659,-0.000
 04894,0.00010303,0.00003233,-0.00000500,0.00000352,-0.00001033,0.00000
 178,-0.00000260,0.00000706,-0.00000681,-0.00000226,0.00000434,-0.00000
 328,0.00000509,0.00000355,0.00000048,0.00000042,-0.00000537,-0.0000005
 1,-0.00000602,0.00000087,-0.00000040,0.00000052,0.00000137,0.00000120,
 -0.00000271,0.00000079,0.00000124,0.00000099,-0.00000636,-0.00000322,-
 0.00000229,-0.00000183,-0.00000106,0.00000187,0.00001052,0.00000495,0.
 00000104,0.00000067,0.00000161,-0.00000370,0.00056220,-0.00085327,0.00
 120442,0.00008568,-0.00016503,-0.00027950,0.00030028,0.00030811,0.0001
 9208,0.00024524,-0.00041564,-0.00029639,-0.10405394,-0.08747283,-0.068
 76642,0.10806772,0.00017343,0.00033886,0.00045457,-0.00001964,-0.00006
 690,0.00003180,-0.00028082,0.00010318,0.00012881,-0.00005398,-0.000039
 05,0.00010713,0.00096593,0.00174381,-0.00154260,-0.00000916,-0.0000088
 0,0.00001325,0.00000077,-0.00000187,0.00000253,-0.01180240,-0.01966916
 ,-0.01626528,0.00039644,0.00078612,-0.00042968,0.00001752,-0.00002977,
 0.00001611,-0.00002943,0.00005137,-0.00001551,0.00000588,-0.00004866,-
 0.00001579,-0.00000348,0.00000860,0.00001159,0.00000268,0.00000969,-0.
 00000399,-0.00000011,-0.00000032,-0.00000342,0.00007373,-0.00005781,0.
 00006913,-0.00000258,-0.00000991,0.00000076,-0.00000171,0.00000132,-0.
 00000093,-0.00000069,-0.00000059,-0.00000004,0.00000049,0.00001624,-0.
 00000676,-0.00001431,0.00003756,-0.00007015,0.00000055,-0.00000839,0.0
 0001860,-0.00000344,0.00000081,-0.00000463,0.00000110,-0.00000032,0.00
 000139,-0.00000734,0.00000549,0.00000051,-0.00000475,-0.00000203,0.000
 00028,-0.00007209,0.00002755,-0.00003227,-0.00002526,0.00002591,0.0000
 0145,0.00005148,-0.00002678,0.00002361,-0.00000132,0.00000649,0.000005
 81,-0.00000158,0.00000305,-0.00000081,0.00000230,-0.00000086,0.0000003
 2,0.00000310,-0.00000278,-0.00000111,0.00001977,-0.00005456,-0.0000006
 3,-0.00005612,-0.00002002,0.00003720,0.00000879,0.00003137,0.00000594,
 0.00006388,0.00002319,0.00000130,-0.00000308,-0.00001173,0.00001253,0.
 00000524,-0.00000243,-0.00000103,0.00000205,-0.00000197,-0.00000024,0.
 00000250,0.00000131,-0.00000142,0.00000363,-0.00000412,0.00000265,0.00
 000148,0.00000065,0.00000008,-0.00000039,-0.00000019,0.00000008,0.0000
 0053,0.00000168,0.00000010,-0.00000641,-0.00000381,-0.00000474,0.00000
 247,0.00000081,0.00000102,0.00000320,0.00000692,-0.00000671,0.00000069
 ,-0.00000061,-0.00000298,-0.00045145,-0.00341374,0.00488712,0.00024338
 ,0.00034260,0.00006842,-0.00006788,0.00016630,-0.00000099,-0.00094642,
 -0.00129895,-0.00079977,-0.08728736,-0.18254072,-0.10443638,0.09672440
 ,0.19946722,-0.00019808,-0.00024863,0.00019720,0.00000150,0.00006846,0
 .00004180,0.00014023,-0.00010834,0.00001958,-0.00010713,0.00007081,0.0
 0016972,-0.00001904,-0.00000336,0.00210719,-0.00003653,0.00001209,-0.0
 0008321,0.00000388,-0.00000061,-0.00000270,0.01034427,0.01525680,0.009
 11897,-0.00011654,-0.00077770,0.00071908,-0.00017898,0.00008120,-0.000
 03608,0.00012613,-0.00005003,-0.00000237,0.00000501,0.00003420,0.00000
 583,-0.00000561,-0.00000196,-0.00000523,-0.00000140,-0.00000111,0.0000
 0107,0.00000010,0.00000012,-0.00000218,0.00004068,-0.00004320,0.000063
 69,-0.00000165,-0.00000732,0.00000047,-0.00000103,0.00000072,-0.000000
 43,0.00000001,-0.00000038,-0.00000009,-0.00000072,0.00001245,-0.000007
 19,-0.00001957,0.00002776,-0.00005606,-0.00000547,-0.00000948,0.000013
 08,-0.00000155,0.00000084,-0.00000288,0.00000058,0.00000083,-0.0000010
 4,-0.00000672,0.00000107,0.00000025,0.00000003,0.00000027,0.00000020,-
 0.00003568,0.00001381,-0.00002252,-0.00001314,0.00001319,0.00000032,0.
 00002479,-0.00001207,0.00001148,-0.00000121,-0.00000871,0.00000197,0.0
 0000323,-0.00000256,-0.00000009,0.00000088,0.00000074,0.00000020,0.000
 00072,0.00000071,-0.00000014,-0.00004198,0.00007117,-0.00004692,0.0000
 6838,-0.00005044,0.00002904,-0.00002282,-0.00002231,0.00002744,-0.0000
 2838,-0.00001801,-0.00000255,0.00000401,-0.00000517,-0.00000486,-0.000
 00746,0.00000269,0.00000031,-0.00001111,0.00000784,0.00001036,-0.00001
 501,0.00000039,0.00001361,0.00000793,0.00001188,0.00001512,-0.00000440
 ,-0.00000107,-0.00000221,-0.00000244,-0.00000420,0.00000975,-0.0000004
 6,-0.00000028,-0.00000393,0.00000309,-0.00001148,0.00002950,-0.0000031
 7,0.00000116,-0.00000168,-0.00000161,0.00000292,-0.00000813,0.00000304
 ,0.00001084,0.00000890,0.00066209,0.00278644,-0.00200850,-0.00013280,0
 .00010882,0.00008978,0.00008314,0.00000222,-0.00009532,0.00035742,0.00
 090571,0.00059361,-0.06965614,-0.10756985,-0.12927369,0.07455363,0.113
 10747,0.13720553,0.00016441,0.00017695,0.00018679,0.00000422,0.0000022
 0,-0.00001191,-0.00007972,0.00019630,-0.00041212,0.00001390,-0.0001002
 8,-0.00025751,0.00077149,0.00063287,-0.00093180,0.00003333,-0.00002845
 ,0.00012332,-0.00000607,0.00000042,-0.00000435,0.00585144,-0.00335884,
 0.00337531,0.00112827,-0.00154525,0.00076023,0.00010791,-0.00003758,0.
 00003509,-0.00009557,0.00006106,-0.00003643,0.00000604,-0.00005223,0.0
 0000585,-0.00000445,0.00000319,-0.00000006,0.00000301,0.00000791,-0.00
 000443,-0.00000104,-0.00000071,-0.00000212,0.00002418,-0.00001798,0.00
 001850,-0.00000118,-0.00000437,0.00000003,-0.00000065,0.00000061,-0.00
 000081,-0.00000047,-0.00000046,-0.00000009,-0.00000324,0.00000768,-0.0
 0000203,0.00000058,0.00001320,-0.00001932,0.00000547,-0.00000033,0.000
 00971,-0.00000192,-0.00000006,-0.00000272,0.00000058,-0.00000007,0.000
 00120,0.00000029,0.00000207,0.00000109,-0.00000306,-0.00000180,-0.0000
 0039,-0.00003676,0.00000865,-0.00001847,-0.00001597,0.00001242,-0.0000
 0108,0.00003461,-0.00001284,0.00001738,0.00000009,0.00000550,0.0000032
 5,-0.00000292,0.00000398,-0.00000020,-0.00000040,-0.00000036,-0.000002
 27,0.00000194,-0.00000118,0.00000059,-0.00149704,-0.00033742,0.0007542
 6,-0.00214408,-0.00042324,0.00125058,-0.00013696,-0.00010467,0.0001196
 4,0.00000255,0.00001555,-0.00008511,-0.00000678,0.00005447,-0.00001564
 ,0.00000506,-0.00000763,0.00000033,0.00002078,-0.00001515,-0.00001235,
 0.00002439,-0.00000107,-0.00003070,-0.00001209,-0.00001158,-0.00001889
 ,0.00000506,0.00000067,0.00000379,0.00000301,0.00000564,-0.00001267,-0
 .00000017,-0.00000079,0.00000380,-0.00000530,0.00001050,-0.00003388,0.
 00000543,-0.00000087,0.00000239,-0.00000180,0.00000295,0.00000170,-0.0
 0000318,-0.00001441,-0.00001096,0.00099383,0.00031458,0.00019875,-0.00
 004190,-0.00003911,-0.00002669,0.00007197,0.00052776,0.00005967,0.0001
 1730,0.00014802,0.00004140,-0.24446546,0.08644612,-0.08814191,-0.01143
 534,0.00547627,-0.00357087,0.26610074,-0.00006699,0.00012125,0.0001638
 0,-0.00020577,0.00004474,0.00014676,0.00038963,0.00007883,0.00063603,-
 0.00024331,0.00014891,-0.00001315,-0.00040953,0.00089279,-0.00111059,-
 0.00003846,-0.00000879,-0.00003474,-0.00000101,-0.00000162,-0.00001412
 ,0.02554126,-0.01184016,0.00933274,-0.00184627,-0.00377451,0.00307005,
 -0.00012701,0.00000010,-0.00010148,0.00008895,-0.00005333,0.00005733,0
 .00000118,0.00003024,-0.00004372,-0.00001793,0.00004187,0.00001047,-0.
 00000183,-0.00000420,0.00001116,0.00000042,-0.00000005,-0.00000063,0.0
 0002603,-0.00002396,0.00003274,-0.00000109,-0.00000406,0.00000026,-0.0
 0000061,0.00000032,-0.00000008,0.,-0.00000003,-0.00000002,0.00000021,0
 .00000729,-0.00000417,-0.00000661,0.00001410,-0.00003015,-0.00000519,-
 0.00000724,0.00000607,-0.00000084,0.00000068,-0.00000133,0.00000042,0.
 00000004,-0.00000014,-0.00000120,0.00000101,0.00000088,-0.00000069,0.0
 0000042,0.00000047,-0.00001489,0.00000975,-0.00000894,-0.00000410,0.00
 000583,0.00000045,0.00000568,-0.00000511,0.00000383,-0.00000098,-0.000
 00119,0.00002261,0.00000393,-0.00000496,-0.00000068,0.00001102,-0.0000
 0092,0.00000377,0.00000155,0.00000107,-0.00000205,0.00027697,-0.000365
 85,0.00002363,-0.00053394,0.00062983,-0.00001900,0.00011231,0.00013660
 ,-0.00023629,-0.00004628,0.00001372,0.00002303,-0.00000069,-0.00004237
 ,0.00001435,-0.00002381,0.00001334,0.00000390,-0.00000441,0.00000395,-
 0.00000139,-0.00001934,0.00000638,0.00000428,0.00000437,0.00000701,0.0
 0000874,-0.00000280,-0.00000054,-0.00000012,-0.00000213,-0.00000259,0.
 00000538,0.00000083,-0.00000013,-0.00000167,-0.00000102,-0.00000333,0.
 00000402,-0.00000116,0.00000214,-0.00000087,-0.00000113,0.00000009,-0.
 00000180,0.00000095,0.00000243,0.00000388,0.00132105,0.00171122,0.0001
 7664,-0.00005320,-0.00004328,-0.00001280,-0.00062372,-0.00020768,-0.00
 043050,-0.00031214,0.00031060,-0.00008593,0.08468773,-0.08449283,0.037
 63581,-0.02012610,0.00946600,-0.00782674,-0.09393425,0.09089718,0.0000
 6849,-0.00011500,-0.00021193,0.00011956,-0.00004942,-0.00012191,-0.000
 10896,0.00000957,-0.00070801,0.00020592,-0.00009145,0.00014675,-0.0005
 8691,-0.00053058,0.00126354,0.00001598,0.00000743,-0.00004856,0.000003
 74,0.00000203,0.00001742,-0.01720607,0.00761029,-0.00849113,0.00125522
 ,0.00311193,-0.00120743,0.00000770,0.00001278,0.00007260,-0.00000632,0
 .00002152,-0.00004271,0.00000473,-0.00001122,0.00003369,0.00000959,-0.
 00002916,-0.00000979,0.00000032,0.00000446,-0.00000950,-0.00000019,-0.
 00000012,-0.00000062,0.00000966,-0.00000366,0.00000234,0.00000005,-0.0
 0000033,0.00000030,-0.00000012,0.00000017,-0.00000012,-0.00000009,-0.0
 0000008,0.00000002,-0.00000065,0.00000055,0.00000077,0.00000076,0.0000
 0218,-0.00000471,0.00000272,-0.00000001,0.00000370,-0.00000059,-0.0000
 0011,-0.00000073,0.,-0.00000005,0.00000050,-0.00000017,0.00000139,0.00
 000064,-0.00000127,-0.00000081,-0.00000033,-0.00001093,0.00000151,-0.0
 0000320,-0.00000377,0.00000262,-0.00000008,0.00000767,-0.00000192,0.00
 000380,0.00000113,-0.00000023,-0.00001474,-0.00000176,0.00000270,0.000
 00025,-0.00000752,0.00000092,-0.00000242,-0.00000073,-0.00000113,0.000
 00100,-0.00005568,0.00043971,-0.00041213,0.00131154,-0.00013777,0.0003
 8081,-0.00015290,-0.00017272,0.00022719,-0.00006377,-0.00010754,0.0001
 3364,0.00001059,0.00003376,0.00000299,0.00002496,-0.00001081,-0.000008
 58,-0.00000909,0.00000543,0.00001272,0.00000314,-0.00000823,0.00001306
 ,0.00000391,0.00000398,0.00000682,-0.00000014,0.00000003,-0.00000282,-
 0.00000025,-0.00000184,0.00000358,-0.00000026,-0.00000008,-0.00000099,
 0.00000226,-0.00000086,0.00001508,0.00000035,-0.00000106,-0.00000242,-
 0.00000187,-0.00000075,-0.00000160,0.00000099,0.00000396,0.00000517,0.
 00033399,-0.00146027,0.00034880,0.00007926,-0.00003498,0.00002412,0.00
 034817,0.00036342,0.00048595,0.00014394,-0.00012648,-0.00006651,-0.087
 44031,0.03765189,-0.08505051,-0.01432623,0.00748941,-0.00661998,0.0945
 5534,-0.04468722,0.08930165,-0.00028092,-0.00021162,-0.00029464,0.0000
 9817,-0.00001544,0.00013759,0.00029686,0.00006622,-0.00048141,-0.00011
 438,0.00015500,0.00036944,0.00133307,-0.00079445,0.00052985,-0.0000512
 2,0.00004526,-0.00014561,0.00000517,-0.00000229,0.00000688,-0.00436541
 ,0.00261481,0.00256794,0.00059109,-0.00034680,-0.00013714,-0.00014727,
 0.00003543,-0.00003610,0.00011984,-0.00006485,0.00002506,0.00000558,0.
 00004656,-0.00000329,-0.00000363,0.00000410,-0.00000047,-0.00000360,-0
 .00000540,0.00000308,0.00000095,-0.00000073,0.00000121,-0.00000768,0.0
 0000190,-0.00000291,-0.00000076,0.00000048,-0.00000038,0.00000018,-0.0
 0000016,0.00000041,0.00000022,0.00000028,-0.00000016,-0.00000079,-0.00
 000297,-0.00000077,-0.00001401,-0.00000299,-0.00000812,-0.00000412,-0.
 00000168,-0.00000280,0.00000054,0.00000019,0.00000075,-0.00000007,-0.0
 0000005,-0.00000078,0.00000003,-0.00000031,-0.00000004,0.00000109,0.00
 000046,-0.00000055,0.00001572,-0.00000525,0.00000743,0.00000608,-0.000
 00517,-0.00000122,-0.00001568,0.00000866,-0.00000481,-0.00000070,-0.00
 000552,0.00000261,0.00000325,-0.00000422,0.00000024,0.00000234,0.00000
 016,0.00000132,-0.00000023,0.00000129,-0.00000051,-0.00023864,0.000263
 37,-0.00014560,0.00022037,-0.00021913,0.00026667,-0.00011679,-0.000113
 18,0.00014898,-0.00002289,-0.00004976,0.00002651,0.00000560,-0.0000200
 3,0.00000025,-0.00000033,-0.00000126,-0.00000790,-0.00001253,0.0000111
 2,0.00001623,-0.00002453,0.00000024,0.00002538,0.00001581,0.00001412,0
 .00002350,-0.00000568,-0.00000074,-0.00000428,-0.00000393,-0.00000689,
 0.00001536,-0.00000037,0.,-0.00000493,0.00000744,-0.00001882,0.0000479
 2,-0.00000540,0.00000074,-0.00000462,0.00000140,-0.00000138,-0.0000045
 0,0.00000494,0.00001854,0.00001392,0.00003429,0.00039789,-0.00001314,0
 .00011957,-0.00043328,-0.00015302,-0.00006183,0.00002134,0.00007945,0.
 00014349,-0.00003223,-0.00017374,-0.14495721,0.04086155,0.12546343,0.0
 0975656,-0.00310049,-0.01218609,-0.01549838,0.00620592,0.02145484,0.15
 316932,-0.00060527,-0.00036749,-0.00066333,0.00016061,0.00009323,0.000
 53186,0.00075302,-0.00044877,0.00012437,-0.00057830,0.00048350,0.00075
 886,-0.00132301,-0.00387733,0.00492585,-0.00010326,0.00012206,-0.00019
 040,0.00000612,-0.00000692,0.00000341,-0.01648654,0.00733090,0.0192101
 0,0.00035592,0.00129313,-0.00041421,-0.00023248,0.00005087,-0.00002719
 ,0.00018188,-0.00007876,0.00001383,0.00000695,0.00006015,0.00001721,-0
 .00000251,-0.00000810,-0.00000547,-0.00000481,-0.00000511,-0.00000103,
 0.00000053,0.00000022,-0.00000008,-0.00000702,0.00000987,-0.00001175,-
 0.00000068,0.00000147,0.00000031,0.00000021,-0.00000018,0.00000021,-0.
 00000005,-0.00000003,-0.00000004,0.00000276,-0.00000386,-0.00000050,0.
 00000249,-0.00000190,0.00000635,-0.00000022,-0.00000359,0.00000249,0.0
 0000065,-0.00000008,0.00000059,0.00000011,-0.00000051,0.00000022,-0.00
 000021,0.00000107,-0.00000029,-0.00000055,0.00000002,0.00000049,0.0000
 0748,-0.00000309,0.00000526,0.00000358,-0.00000476,0.00000032,-0.00000
 805,0.00000461,-0.00000377,-0.00000106,-0.00001033,-0.00000429,0.00000
 424,-0.00000448,0.00000079,-0.00000023,0.00000056,-0.00000031,0.000001
 74,0.00000097,0.00000143,0.00008684,-0.00011714,0.00013408,-0.00007585
 ,0.00006640,-0.00014269,-0.00000068,0.00003620,-0.00006241,-0.00000378
 ,0.00001865,-0.00006587,0.00004678,0.00004782,0.00000867,-0.00002398,0
 .00000690,-0.00000208,-0.00003306,0.00001614,0.00002634,-0.00001747,-0
 .00000191,0.00001267,0.00002325,0.00002032,0.00002753,-0.00000719,-0.0
 0000112,-0.00000418,-0.00000670,-0.00000861,0.00001990,-0.00000122,0.0
 0000028,-0.00000569,0.00002234,-0.00002892,0.00008197,-0.00000942,-0.0
 0000018,-0.00000511,0.00000447,-0.00000112,-0.00000587,0.00000741,0.00
 003345,0.00002062,-0.00003560,0.00087437,-0.00024264,-0.00021984,-0.00
 067493,-0.00008193,-0.00005342,-0.00006047,-0.00006220,0.00029535,0.00
 030580,0.00000838,0.04240680,-0.06467645,-0.05438298,0.01485400,-0.005
 34719,-0.01583060,0.00591545,-0.00371101,-0.00919774,-0.04530853,0.068
 57541,0.00080986,0.00052046,0.00137673,-0.00012645,-0.00014277,-0.0006
 1906,-0.00133834,0.00062350,0.00007589,0.00068475,-0.00047197,-0.00080
 197,0.00092277,0.00385895,-0.00344470,0.00013861,-0.00009496,0.0002797
 1,-0.00000974,0.00000544,-0.00000458,0.00984334,-0.00711879,-0.0134147
 5,-0.00042860,-0.00053023,0.00027390,0.00038717,-0.00010845,0.00004443
 ,-0.00029490,0.00013731,-0.00001463,-0.00001137,-0.00008739,-0.0000275
 1,0.00001038,0.00001085,0.00000606,0.00000465,0.00000703,0.00000413,0.
 00000221,0.00000004,0.00000238,-0.00000893,0.00000891,-0.00002202,0.00
 000183,0.00000585,-0.00000063,0.00000054,-0.00000007,0.00000088,-0.000
 00027,0.00000042,0.00000046,0.00000340,-0.00000962,0.00000337,-0.00000
 499,-0.00001277,0.00001257,0.00000154,-0.00000012,-0.00000994,0.000001
 63,0.,0.00000236,-0.00000100,-0.00000150,0.00000047,-0.00000069,0.0000
 0230,0.00000013,-0.00000033,-0.00000005,0.00000014,0.00002053,-0.00000
 483,0.00001855,0.00001029,-0.00000593,0.00000399,-0.00002726,0.0000094
 5,-0.00001729,0.00000350,0.00001824,0.00000126,-0.00000706,0.00000701,
 -0.00000097,-0.00000181,-0.00000126,0.00000216,-0.00000647,-0.00000093
 ,-0.00000245,-0.00014411,0.00002753,-0.00004838,0.00008368,-0.00003875
 ,0.00009969,0.00000678,-0.00004324,0.00006927,0.00001581,-0.00001027,0
 .00005922,-0.00005333,-0.00002855,-0.00001720,0.00003043,-0.00001301,0
 .00000282,0.00004580,-0.00002605,-0.00003645,0.00004175,0.00000125,-0.
 00003199,-0.00003556,-0.00003034,-0.00005081,0.00001176,0.00000172,0.0
 0000776,0.00001017,0.00001399,-0.00003258,0.00000106,0.00000003,0.0000
 0959,-0.00002711,0.00003325,-0.00009774,0.00001149,-0.00000128,0.00001
 012,0.00000048,0.00000538,0.00000838,-0.00000856,-0.00003874,-0.000030
 41,-0.00012692,-0.00090810,0.00037526,-0.00005773,0.00019873,0.0004107
 4,0.00002398,0.00006976,0.00001951,-0.00027966,0.00012285,0.00009523,0
 .12494558,-0.05184499,-0.20477505,0.01020443,-0.00285311,-0.01221507,-
 0.00786225,0.00326723,0.01053459,-0.13741673,0.05547055,0.22190447\\-0
 .00000003,0.00000312,0.00001139,-0.00000112,-0.00000085,-0.00000004,0.
 00000386,0.00000013,-0.00000075,-0.00000757,0.00000046,0.00000157,0.00
 000169,0.00000674,-0.00000411,0.00000031,0.00000107,-0.00000460,0.0000
 0058,-0.00000050,-0.00000033,-0.00000035,-0.00000018,-0.00000099,-0.00
 000117,0.00000180,-0.00000122,0.00001223,-0.00000230,-0.00000543,-0.00
 000346,-0.00000591,-0.00000430,-0.00000297,-0.00000056,0.00000144,-0.0
 0000127,-0.00000088,-0.00000037,0.00000002,0.00000004,-0.00000114,0.00
 000204,-0.00000477,0.00000053,0.00000121,-0.00000158,0.00000045,-0.000
 00219,-0.00000562,0.00000022,-0.00000133,-0.00000215,-0.00000162,-0.00
 000016,-0.00000210,-0.00000064,0.00000430,-0.00000041,-0.00000466,-0.0
 0000008,0.00000188,0.00000002,-0.00000348,0.00000498,-0.00000118,0.000
 00173,-0.00000066,-0.00000097,0.00000198,0.00000056,0.00000003,-0.0000
 0106,-0.00000222,0.00000192,-0.00000179,-0.00000017,0.00000110,0.00000
 422,-0.00000647,0.00000759,0.00000407,-0.00000613,-0.00000171,-0.00000
 759,0.00000936,-0.00000876,-0.00000075,-0.00000239,-0.00000307,-0.0000
 0101,-0.00000094,-0.00000189,-0.00000015,-0.00000156,-0.00000107,-0.00
 000097,0.00000019,-0.00000057,-0.00000121,0.00000466,0.00000079,-0.000
 00077,0.00000070,0.00000169,-0.00000024,0.00000213,0.00000233,-0.00000
 048,0.00000253,0.00000066,-0.00000034,0.00000114,0.00000010,0.00000083
 ,0.00000104,0.00000108,0.00000232,0.00000115,0.00000287,0.00000060,-0.
 00000044,0.00000349,0.00000024,-0.00000087,0.00000278,0.00000169,-0.00
 000086,-0.00000126,-0.00000032,-0.00000115,-0.00000079,0.00000011,-0.0
 0000034,0.00000087,0.00000162,-0.00000191,0.00000069,0.00000020,0.0000
 0043,0.00000108,0.00000092,-0.00000005,0.00000190,0.00000164,-0.000001
 77,0.00000082,-0.00000063,0.00000225,0.00000099,-0.00000147,0.00000200
 ,-0.00000102,-0.00000170,0.00000144,-0.00000180,-0.00000024,0.00000211
 ,-0.00000096,-0.00000064,-0.00000220,0.00000091,-0.00000020,0.00000210
 ,0.00000058,-0.00000077,0.00000275,0.00000240,-0.00000090,0.00000122,0
 .00000294\\\@


 THEREFORE SHALL EVIL COME UPON THEE...
 THOU SHALT NOT KNOW FROM WHENCE IT RISETH...
 AND MISCHIEF SHALL FALL UPON THEE...
 THOU SHALT NOT BE ABLE TO PUT IT OFF...
 AND DESOLATION SHALL COME UPON THEE SUDDENLY...
 WHICH THOU SHALT NOT KNOW...

                                         ISAIAH 47.11
 Job cpu time:       6 days  9 hours 24 minutes 42.8 seconds.
 File lengths (MBytes):  RWF=   4554 Int=      0 D2E=      0 Chk=     53 Scr=      1
 Normal termination of Gaussian 09 at Tue Oct  5 20:40:01 2021.
