 Entering Gaussian System, Link 0=g09
 Input=reag_NHC18_et.gjf
 Output=reag_NHC18_et.log
 Initial command:
 /usr/local/gqt/g09/l1.exe "/usr/local/gqt/lixogaussian/Gau-11589.inp" -scrdir="/usr/local/gqt/lixogaussian/"
 Entering Link 1 = /usr/local/gqt/g09/l1.exe PID=     11591.
  
 Copyright (c) 1988,1990,1992,1993,1995,1998,2003,2009,2013,
            Gaussian, Inc.  All Rights Reserved.
  
 This is part of the Gaussian(R) 09 program.  It is based on
 the Gaussian(R) 03 system (copyright 2003, Gaussian, Inc.),
 the Gaussian(R) 98 system (copyright 1998, Gaussian, Inc.),
 the Gaussian(R) 94 system (copyright 1995, Gaussian, Inc.),
 the Gaussian 92(TM) system (copyright 1992, Gaussian, Inc.),
 the Gaussian 90(TM) system (copyright 1990, Gaussian, Inc.),
 the Gaussian 88(TM) system (copyright 1988, Gaussian, Inc.),
 the Gaussian 86(TM) system (copyright 1986, Carnegie Mellon
 University), and the Gaussian 82(TM) system (copyright 1983,
 Carnegie Mellon University). Gaussian is a federally registered
 trademark of Gaussian, Inc.
  
 This software contains proprietary and confidential information,
 including trade secrets, belonging to Gaussian, Inc.
  
 This software is provided under written license and may be
 used, copied, transmitted, or stored only in accord with that
 written license.
  
 The following legend is applicable only to US Government
 contracts under FAR:
  
                    RESTRICTED RIGHTS LEGEND
  
 Use, reproduction and disclosure by the US Government is
 subject to restrictions as set forth in subparagraphs (a)
 and (c) of the Commercial Computer Software - Restricted
 Rights clause in FAR 52.227-19.
  
 Gaussian, Inc.
 340 Quinnipiac St., Bldg. 40, Wallingford CT 06492
  
  
 ---------------------------------------------------------------
 Warning -- This program may not be used in any manner that
 competes with the business of Gaussian, Inc. or will provide
 assistance to any competitor of Gaussian, Inc.  The licensee
 of this program is prohibited from giving any competitor of
 Gaussian, Inc. access to this program.  By using this program,
 the user acknowledges that Gaussian, Inc. is engaged in the
 business of creating and licensing software in the field of
 computational chemistry and represents and warrants to the
 licensee that it is not a competitor of Gaussian, Inc. and that
 it will not use this program in any manner prohibited above.
 ---------------------------------------------------------------
  

 Cite this work as:
 Gaussian 09, Revision D.01,
 M. J. Frisch, G. W. Trucks, H. B. Schlegel, G. E. Scuseria, 
 M. A. Robb, J. R. Cheeseman, G. Scalmani, V. Barone, B. Mennucci, 
 G. A. Petersson, H. Nakatsuji, M. Caricato, X. Li, H. P. Hratchian, 
 A. F. Izmaylov, J. Bloino, G. Zheng, J. L. Sonnenberg, M. Hada, 
 M. Ehara, K. Toyota, R. Fukuda, J. Hasegawa, M. Ishida, T. Nakajima, 
 Y. Honda, O. Kitao, H. Nakai, T. Vreven, J. A. Montgomery, Jr., 
 J. E. Peralta, F. Ogliaro, M. Bearpark, J. J. Heyd, E. Brothers, 
 K. N. Kudin, V. N. Staroverov, T. Keith, R. Kobayashi, J. Normand, 
 K. Raghavachari, A. Rendell, J. C. Burant, S. S. Iyengar, J. Tomasi, 
 M. Cossi, N. Rega, J. M. Millam, M. Klene, J. E. Knox, J. B. Cross, 
 V. Bakken, C. Adamo, J. Jaramillo, R. Gomperts, R. E. Stratmann, 
 O. Yazyev, A. J. Austin, R. Cammi, C. Pomelli, J. W. Ochterski, 
 R. L. Martin, K. Morokuma, V. G. Zakrzewski, G. A. Voth, 
 P. Salvador, J. J. Dannenberg, S. Dapprich, A. D. Daniels, 
 O. Farkas, J. B. Foresman, J. V. Ortiz, J. Cioslowski, 
 and D. J. Fox, Gaussian, Inc., Wallingford CT, 2013.
 
 ******************************************
 Gaussian 09:  ES64L-G09RevD.01 24-Apr-2013
                21-Nov-2021 
 ******************************************
 %nprocshared=16
 Will use up to   16 processors via shared memory.
 %mem=50GB
 %chk=reag_NHC18_et.chk
 ------------------------------------------------------------
 #p opt freq n12sx/6-311+g(d,p) scrf=(iefpcm,solvent=ethanol)
 ------------------------------------------------------------
 1/14=-1,18=20,19=15,26=3,38=1/1,3;
 2/9=110,12=2,17=6,18=5,40=1/2;
 3/5=4,6=6,7=111,11=2,16=1,25=1,30=1,70=2201,71=1,72=4,74=-69/1,2,3;
 4//1;
 5/5=2,38=5,53=4/2;
 6/7=2,8=2,9=2,10=2,28=1/1;
 7//1,2,3,16;
 1/14=-1,18=20,19=15,26=3/3(2);
 2/9=110/2;
 99//99;
 2/9=110/2;
 3/5=4,6=6,7=111,11=2,16=1,25=1,30=1,70=2205,71=1,72=4,74=-69/1,2,3;
 4/5=5,16=3,69=1/1;
 5/5=2,38=5,53=4/2;
 7//1,2,3,16;
 1/14=-1,18=20,19=15,26=3/3(-5);
 2/9=110/2;
 6/7=2,8=2,9=2,10=2,19=2,28=1/1;
 99/9=1/99;
 Leave Link    1 at Sun Nov 21 21:40:59 2021, MaxMem=  6710886400 cpu:         0.7
 (Enter /usr/local/gqt/g09/l101.exe)
 -----
 TITLE
 -----
 Symbolic Z-matrix:
 Charge =  0 Multiplicity = 1
 1                    -0.37611   0.3208    0.52245 
 8                    -1.34694   0.44768   0.69052 
 6                    -1.55721   0.66336   2.06538 
 1                    -1.1507   -0.16765   2.65162 
 1                    -1.03804   1.56948   2.39665 
 6                    -6.14386   0.77042  -0.5488 
 6                    -3.84375  -0.8129   -1.26472 
 6                    -5.02634   1.34402  -1.40374 
 1                    -6.48255   1.46246   0.21777 
 1                    -7.01598   0.55572  -1.17087 
 6                    -4.39464   0.22405  -2.20794 
 1                    -3.52774  -1.7123   -1.78378 
 1                    -3.0042   -0.41906  -0.6933 
 1                    -5.42273   2.12324  -2.05081 
 1                    -4.26984   1.80868  -0.77037 
 1                    -3.57537   0.58976  -2.82462 
 1                    -5.13126  -0.22269  -2.87744 
 8                    -4.8192   -1.27338  -0.29999 
 8                    -6.50741  -0.95618   1.04573 
 6                    -5.83108  -0.53148   0.13849 
 6                    -3.03571   0.7987    2.34108 
 1                    -3.21477   0.97079   3.40129 
 1                    -3.45544   1.63641   1.78558 
 1                    -3.56591  -0.10598   2.0484 
 6                     5.84669  -0.31941  -1.32525 
 6                     5.09204   1.00042  -1.50266 
 6                     4.11755   1.3038   -0.36019 
 6                     1.89335   0.13297  -0.37195 
 1                     6.70297  -0.16677  -0.66729 
 1                     4.54109   1.00366  -2.44153 
 1                     4.33132   0.66366   0.49373 
 1                     6.2589   -0.6176   -2.28992 
 1                     5.81757   1.80847  -1.58473 
 1                     4.2723    2.32362  -0.0177 
 6                     4.99062  -1.45458  -0.75847 
 1                     4.93504  -1.38767   0.32662 
 1                     5.48411  -2.40219  -0.96964 
 6                     3.56656  -1.48389  -1.32262 
 1                     3.50432  -0.86129  -2.21325 
 1                     3.32898  -2.49432  -1.6449 
 6                     2.01525   2.48242  -0.75261 
 1                     0.95321   2.32334  -0.89275 
 1                     2.17278   3.09026   0.1416 
 1                     2.40277   3.03238  -1.60964 
 6                     1.66802  -2.20462   0.03366 
 1                     0.84453  -1.82972   0.62878 
 1                     1.27185  -2.78471  -0.80326 
 1                     2.27205  -2.8686    0.65125 
 7                     2.67622   1.19398  -0.63864 
 7                     2.46544  -1.08315  -0.43151 
 
 Add virtual bond connecting atoms H13        and O2         Dist= 4.40D+00.
 Add virtual bond connecting atoms C28        and H1         Dist= 4.62D+00.
 Add virtual bond connecting atoms H46        and H1         Dist= 4.68D+00.
 NAtoms=     50 NQM=       50 NQMF=       0 NMMI=      0 NMMIF=      0
                NMic=       0 NMicF=      0.
                    Isotopes and Nuclear Properties:
 (Nuclear quadrupole moments (NQMom) in fm**2, nuclear magnetic moments (NMagM)
  in nuclear magnetons)

  Atom         1           2           3           4           5           6           7           8           9          10
 IAtWgt=           1          16          12           1           1          12          12          12           1           1
 AtmWgt=   1.0078250  15.9949146  12.0000000   1.0078250   1.0078250  12.0000000  12.0000000  12.0000000   1.0078250   1.0078250
 NucSpn=           1           0           0           1           1           0           0           0           1           1
 AtZEff=   0.0000000   0.0000000   0.0000000   0.0000000   0.0000000   0.0000000   0.0000000   0.0000000   0.0000000   0.0000000
 NQMom=    0.0000000   0.0000000   0.0000000   0.0000000   0.0000000   0.0000000   0.0000000   0.0000000   0.0000000   0.0000000
 NMagM=    2.7928460   0.0000000   0.0000000   2.7928460   2.7928460   0.0000000   0.0000000   0.0000000   2.7928460   2.7928460
 AtZNuc=   1.0000000   8.0000000   6.0000000   1.0000000   1.0000000   6.0000000   6.0000000   6.0000000   1.0000000   1.0000000

  Atom        11          12          13          14          15          16          17          18          19          20
 IAtWgt=          12           1           1           1           1           1           1          16          16          12
 AtmWgt=  12.0000000   1.0078250   1.0078250   1.0078250   1.0078250   1.0078250   1.0078250  15.9949146  15.9949146  12.0000000
 NucSpn=           0           1           1           1           1           1           1           0           0           0
 AtZEff=   0.0000000   0.0000000   0.0000000   0.0000000   0.0000000   0.0000000   0.0000000   0.0000000   0.0000000   0.0000000
 NQMom=    0.0000000   0.0000000   0.0000000   0.0000000   0.0000000   0.0000000   0.0000000   0.0000000   0.0000000   0.0000000
 NMagM=    0.0000000   2.7928460   2.7928460   2.7928460   2.7928460   2.7928460   2.7928460   0.0000000   0.0000000   0.0000000
 AtZNuc=   6.0000000   1.0000000   1.0000000   1.0000000   1.0000000   1.0000000   1.0000000   8.0000000   8.0000000   6.0000000

  Atom        21          22          23          24          25          26          27          28          29          30
 IAtWgt=          12           1           1           1          12          12          12          12           1           1
 AtmWgt=  12.0000000   1.0078250   1.0078250   1.0078250  12.0000000  12.0000000  12.0000000  12.0000000   1.0078250   1.0078250
 NucSpn=           0           1           1           1           0           0           0           0           1           1
 AtZEff=   0.0000000   0.0000000   0.0000000   0.0000000   0.0000000   0.0000000   0.0000000   0.0000000   0.0000000   0.0000000
 NQMom=    0.0000000   0.0000000   0.0000000   0.0000000   0.0000000   0.0000000   0.0000000   0.0000000   0.0000000   0.0000000
 NMagM=    0.0000000   2.7928460   2.7928460   2.7928460   0.0000000   0.0000000   0.0000000   0.0000000   2.7928460   2.7928460
 AtZNuc=   6.0000000   1.0000000   1.0000000   1.0000000   6.0000000   6.0000000   6.0000000   6.0000000   1.0000000   1.0000000

  Atom        31          32          33          34          35          36          37          38          39          40
 IAtWgt=           1           1           1           1          12           1           1          12           1           1
 AtmWgt=   1.0078250   1.0078250   1.0078250   1.0078250  12.0000000   1.0078250   1.0078250  12.0000000   1.0078250   1.0078250
 NucSpn=           1           1           1           1           0           1           1           0           1           1
 AtZEff=   0.0000000   0.0000000   0.0000000   0.0000000   0.0000000   0.0000000   0.0000000   0.0000000   0.0000000   0.0000000
 NQMom=    0.0000000   0.0000000   0.0000000   0.0000000   0.0000000   0.0000000   0.0000000   0.0000000   0.0000000   0.0000000
 NMagM=    2.7928460   2.7928460   2.7928460   2.7928460   0.0000000   2.7928460   2.7928460   0.0000000   2.7928460   2.7928460
 AtZNuc=   1.0000000   1.0000000   1.0000000   1.0000000   6.0000000   1.0000000   1.0000000   6.0000000   1.0000000   1.0000000

  Atom        41          42          43          44          45          46          47          48          49          50
 IAtWgt=          12           1           1           1          12           1           1           1          14          14
 AtmWgt=  12.0000000   1.0078250   1.0078250   1.0078250  12.0000000   1.0078250   1.0078250   1.0078250  14.0030740  14.0030740
 NucSpn=           0           1           1           1           0           1           1           1           2           2
 AtZEff=   0.0000000   0.0000000   0.0000000   0.0000000   0.0000000   0.0000000   0.0000000   0.0000000   0.0000000   0.0000000
 NQMom=    0.0000000   0.0000000   0.0000000   0.0000000   0.0000000   0.0000000   0.0000000   0.0000000   2.0440000   2.0440000
 NMagM=    0.0000000   2.7928460   2.7928460   2.7928460   0.0000000   2.7928460   2.7928460   2.7928460   0.4037610   0.4037610
 AtZNuc=   6.0000000   1.0000000   1.0000000   1.0000000   6.0000000   1.0000000   1.0000000   1.0000000   7.0000000   7.0000000
 Leave Link  101 at Sun Nov 21 21:40:59 2021, MaxMem=  6710886400 cpu:         7.1
 (Enter /usr/local/gqt/g09/l103.exe)

 GradGradGradGradGradGradGradGradGradGradGradGradGradGradGradGradGradGrad
 Berny optimization.
 Initialization pass.
                           ----------------------------
                           !    Initial Parameters    !
                           ! (Angstroms and Degrees)  !
 --------------------------                            --------------------------
 ! Name  Definition              Value          Derivative Info.                !
 --------------------------------------------------------------------------------
 ! R1    R(1,2)                  0.9934         estimate D2E/DX2                !
 ! R2    R(1,28)                 2.4466         estimate D2E/DX2                !
 ! R3    R(1,46)                 2.4751         estimate D2E/DX2                !
 ! R4    R(2,3)                  1.4075         estimate D2E/DX2                !
 ! R5    R(2,13)                 2.3265         estimate D2E/DX2                !
 ! R6    R(3,4)                  1.0952         estimate D2E/DX2                !
 ! R7    R(3,5)                  1.0956         estimate D2E/DX2                !
 ! R8    R(3,21)                 1.5101         estimate D2E/DX2                !
 ! R9    R(6,8)                  1.5195         estimate D2E/DX2                !
 ! R10   R(6,9)                  1.0869         estimate D2E/DX2                !
 ! R11   R(6,10)                 1.0925         estimate D2E/DX2                !
 ! R12   R(6,20)                 1.505          estimate D2E/DX2                !
 ! R13   R(7,11)                 1.5061         estimate D2E/DX2                !
 ! R14   R(7,12)                 1.0855         estimate D2E/DX2                !
 ! R15   R(7,13)                 1.0893         estimate D2E/DX2                !
 ! R16   R(7,18)                 1.4472         estimate D2E/DX2                !
 ! R17   R(8,11)                 1.5166         estimate D2E/DX2                !
 ! R18   R(8,14)                 1.0877         estimate D2E/DX2                !
 ! R19   R(8,15)                 1.0906         estimate D2E/DX2                !
 ! R20   R(11,16)                1.0887         estimate D2E/DX2                !
 ! R21   R(11,17)                1.0911         estimate D2E/DX2                !
 ! R22   R(18,20)                1.3291         estimate D2E/DX2                !
 ! R23   R(19,20)                1.2087         estimate D2E/DX2                !
 ! R24   R(21,22)                1.0889         estimate D2E/DX2                !
 ! R25   R(21,23)                1.0893         estimate D2E/DX2                !
 ! R26   R(21,24)                1.0887         estimate D2E/DX2                !
 ! R27   R(25,26)                1.5307         estimate D2E/DX2                !
 ! R28   R(25,29)                1.0906         estimate D2E/DX2                !
 ! R29   R(25,32)                1.0906         estimate D2E/DX2                !
 ! R30   R(25,35)                1.5306         estimate D2E/DX2                !
 ! R31   R(26,27)                1.532          estimate D2E/DX2                !
 ! R32   R(26,30)                1.0886         estimate D2E/DX2                !
 ! R33   R(26,33)                1.0891         estimate D2E/DX2                !
 ! R34   R(27,31)                1.0884         estimate D2E/DX2                !
 ! R35   R(27,34)                1.0869         estimate D2E/DX2                !
 ! R36   R(27,49)                1.4721         estimate D2E/DX2                !
 ! R37   R(28,49)                1.3453         estimate D2E/DX2                !
 ! R38   R(28,50)                1.3453         estimate D2E/DX2                !
 ! R39   R(35,36)                1.0886         estimate D2E/DX2                !
 ! R40   R(35,37)                1.0891         estimate D2E/DX2                !
 ! R41   R(35,38)                1.532          estimate D2E/DX2                !
 ! R42   R(38,39)                1.0885         estimate D2E/DX2                !
 ! R43   R(38,40)                1.0869         estimate D2E/DX2                !
 ! R44   R(38,50)                1.4721         estimate D2E/DX2                !
 ! R45   R(41,42)                1.083          estimate D2E/DX2                !
 ! R46   R(41,43)                1.0927         estimate D2E/DX2                !
 ! R47   R(41,44)                1.0896         estimate D2E/DX2                !
 ! R48   R(41,49)                1.4526         estimate D2E/DX2                !
 ! R49   R(45,46)                1.083          estimate D2E/DX2                !
 ! R50   R(45,47)                1.0926         estimate D2E/DX2                !
 ! R51   R(45,48)                1.0896         estimate D2E/DX2                !
 ! R52   R(45,50)                1.4526         estimate D2E/DX2                !
 ! A1    A(2,1,46)             125.8503         estimate D2E/DX2                !
 ! A2    A(28,1,46)             59.4379         estimate D2E/DX2                !
 ! A3    A(1,2,3)              109.3192         estimate D2E/DX2                !
 ! A4    A(1,2,13)             123.2253         estimate D2E/DX2                !
 ! A5    A(3,2,13)             122.12           estimate D2E/DX2                !
 ! A6    A(2,3,4)              110.5572         estimate D2E/DX2                !
 ! A7    A(2,3,5)              110.5673         estimate D2E/DX2                !
 ! A8    A(2,3,21)             109.7759         estimate D2E/DX2                !
 ! A9    A(4,3,5)              106.8467         estimate D2E/DX2                !
 ! A10   A(4,3,21)             109.4928         estimate D2E/DX2                !
 ! A11   A(5,3,21)             109.5506         estimate D2E/DX2                !
 ! A12   A(8,6,9)              112.6849         estimate D2E/DX2                !
 ! A13   A(8,6,10)             109.9318         estimate D2E/DX2                !
 ! A14   A(8,6,20)             115.5084         estimate D2E/DX2                !
 ! A15   A(9,6,10)             106.1388         estimate D2E/DX2                !
 ! A16   A(9,6,20)             107.066          estimate D2E/DX2                !
 ! A17   A(10,6,20)            104.8276         estimate D2E/DX2                !
 ! A18   A(11,7,12)            112.1782         estimate D2E/DX2                !
 ! A19   A(11,7,13)            111.1929         estimate D2E/DX2                !
 ! A20   A(11,7,18)            112.9556         estimate D2E/DX2                !
 ! A21   A(12,7,13)            109.0298         estimate D2E/DX2                !
 ! A22   A(12,7,18)            104.5587         estimate D2E/DX2                !
 ! A23   A(13,7,18)            106.5508         estimate D2E/DX2                !
 ! A24   A(6,8,11)             109.0215         estimate D2E/DX2                !
 ! A25   A(6,8,14)             109.7032         estimate D2E/DX2                !
 ! A26   A(6,8,15)             110.1354         estimate D2E/DX2                !
 ! A27   A(11,8,14)            111.4316         estimate D2E/DX2                !
 ! A28   A(11,8,15)            109.491          estimate D2E/DX2                !
 ! A29   A(14,8,15)            107.0418         estimate D2E/DX2                !
 ! A30   A(7,11,8)             109.19           estimate D2E/DX2                !
 ! A31   A(7,11,16)            108.1054         estimate D2E/DX2                !
 ! A32   A(7,11,17)            110.446          estimate D2E/DX2                !
 ! A33   A(8,11,16)            111.4537         estimate D2E/DX2                !
 ! A34   A(8,11,17)            110.2755         estimate D2E/DX2                !
 ! A35   A(16,11,17)           107.3384         estimate D2E/DX2                !
 ! A36   A(7,18,20)            123.7432         estimate D2E/DX2                !
 ! A37   A(6,20,18)            119.3678         estimate D2E/DX2                !
 ! A38   A(6,20,19)            122.035          estimate D2E/DX2                !
 ! A39   A(18,20,19)           118.5218         estimate D2E/DX2                !
 ! A40   A(3,21,22)            110.6665         estimate D2E/DX2                !
 ! A41   A(3,21,23)            110.6772         estimate D2E/DX2                !
 ! A42   A(3,21,24)            110.6881         estimate D2E/DX2                !
 ! A43   A(22,21,23)           108.1573         estimate D2E/DX2                !
 ! A44   A(22,21,24)           108.2394         estimate D2E/DX2                !
 ! A45   A(23,21,24)           108.3192         estimate D2E/DX2                !
 ! A46   A(26,25,29)           109.6535         estimate D2E/DX2                !
 ! A47   A(26,25,32)           108.6374         estimate D2E/DX2                !
 ! A48   A(26,25,35)           113.9959         estimate D2E/DX2                !
 ! A49   A(29,25,32)           105.9706         estimate D2E/DX2                !
 ! A50   A(29,25,35)           108.635          estimate D2E/DX2                !
 ! A51   A(32,25,35)           109.643          estimate D2E/DX2                !
 ! A52   A(25,26,27)           113.4488         estimate D2E/DX2                !
 ! A53   A(25,26,30)           110.613          estimate D2E/DX2                !
 ! A54   A(25,26,33)           108.666          estimate D2E/DX2                !
 ! A55   A(27,26,30)           108.7026         estimate D2E/DX2                !
 ! A56   A(27,26,33)           109.4531         estimate D2E/DX2                !
 ! A57   A(30,26,33)           105.6627         estimate D2E/DX2                !
 ! A58   A(26,27,31)           110.1008         estimate D2E/DX2                !
 ! A59   A(26,27,34)           109.2836         estimate D2E/DX2                !
 ! A60   A(26,27,49)           117.8384         estimate D2E/DX2                !
 ! A61   A(31,27,34)           106.0612         estimate D2E/DX2                !
 ! A62   A(31,27,49)           107.2676         estimate D2E/DX2                !
 ! A63   A(34,27,49)           105.6058         estimate D2E/DX2                !
 ! A64   A(1,28,49)            123.4862         estimate D2E/DX2                !
 ! A65   A(1,28,50)            118.6892         estimate D2E/DX2                !
 ! A66   A(49,28,50)           117.1759         estimate D2E/DX2                !
 ! A67   A(25,35,36)           110.6149         estimate D2E/DX2                !
 ! A68   A(25,35,37)           108.6677         estimate D2E/DX2                !
 ! A69   A(25,35,38)           113.436          estimate D2E/DX2                !
 ! A70   A(36,35,37)           105.6579         estimate D2E/DX2                !
 ! A71   A(36,35,38)           108.7101         estimate D2E/DX2                !
 ! A72   A(37,35,38)           109.4602         estimate D2E/DX2                !
 ! A73   A(35,38,39)           110.0921         estimate D2E/DX2                !
 ! A74   A(35,38,40)           109.2792         estimate D2E/DX2                !
 ! A75   A(35,38,50)           117.8505         estimate D2E/DX2                !
 ! A76   A(39,38,40)           106.0599         estimate D2E/DX2                !
 ! A77   A(39,38,50)           107.2667         estimate D2E/DX2                !
 ! A78   A(40,38,50)           105.6084         estimate D2E/DX2                !
 ! A79   A(42,41,43)           109.2076         estimate D2E/DX2                !
 ! A80   A(42,41,44)           108.7317         estimate D2E/DX2                !
 ! A81   A(42,41,49)           109.0323         estimate D2E/DX2                !
 ! A82   A(43,41,44)           108.1589         estimate D2E/DX2                !
 ! A83   A(43,41,49)           111.3233         estimate D2E/DX2                !
 ! A84   A(44,41,49)           110.3408         estimate D2E/DX2                !
 ! A85   A(46,45,47)           109.2079         estimate D2E/DX2                !
 ! A86   A(46,45,48)           108.7247         estimate D2E/DX2                !
 ! A87   A(46,45,50)           109.0351         estimate D2E/DX2                !
 ! A88   A(47,45,48)           108.158          estimate D2E/DX2                !
 ! A89   A(47,45,50)           111.3241         estimate D2E/DX2                !
 ! A90   A(48,45,50)           110.3444         estimate D2E/DX2                !
 ! A91   A(1,46,45)            130.7056         estimate D2E/DX2                !
 ! A92   A(27,49,28)           126.2369         estimate D2E/DX2                !
 ! A93   A(27,49,41)           113.2162         estimate D2E/DX2                !
 ! A94   A(28,49,41)           116.7648         estimate D2E/DX2                !
 ! A95   A(28,50,38)           126.2256         estimate D2E/DX2                !
 ! A96   A(28,50,45)           116.7629         estimate D2E/DX2                !
 ! A97   A(38,50,45)           113.2227         estimate D2E/DX2                !
 ! A98   L(2,1,28,46,-1)       185.2882         estimate D2E/DX2                !
 ! A99   L(2,13,7,9,-1)        175.6776         estimate D2E/DX2                !
 ! A100  L(2,1,28,46,-2)       167.1203         estimate D2E/DX2                !
 ! A101  L(2,13,7,9,-2)        183.2122         estimate D2E/DX2                !
 ! D1    D(46,1,2,3)            87.8347         estimate D2E/DX2                !
 ! D2    D(46,1,2,13)          -66.7412         estimate D2E/DX2                !
 ! D3    D(1,2,7,11)           -99.5938         estimate D2E/DX2                !
 ! D4    D(1,2,7,12)            26.9466         estimate D2E/DX2                !
 ! D5    D(1,2,7,18)           138.6817         estimate D2E/DX2                !
 ! D6    D(3,2,7,11)           109.188          estimate D2E/DX2                !
 ! D7    D(3,2,7,12)          -124.2716         estimate D2E/DX2                !
 ! D8    D(3,2,7,18)           -12.5365         estimate D2E/DX2                !
 ! D9    D(3,2,28,49)          -83.2676         estimate D2E/DX2                !
 ! D10   D(3,2,28,50)           91.2223         estimate D2E/DX2                !
 ! D11   D(13,2,28,49)         117.3844         estimate D2E/DX2                !
 ! D12   D(13,2,28,50)         -68.1258         estimate D2E/DX2                !
 ! D13   D(46,1,28,49)        -163.1541         estimate D2E/DX2                !
 ! D14   D(46,1,28,50)           7.3422         estimate D2E/DX2                !
 ! D15   D(2,1,46,45)          144.1952         estimate D2E/DX2                !
 ! D16   D(28,1,46,45)         -22.9252         estimate D2E/DX2                !
 ! D17   D(1,2,3,4)            -56.6894         estimate D2E/DX2                !
 ! D18   D(1,2,3,5)             61.4301         estimate D2E/DX2                !
 ! D19   D(1,2,3,21)          -177.5903         estimate D2E/DX2                !
 ! D20   D(13,2,3,4)            98.221          estimate D2E/DX2                !
 ! D21   D(13,2,3,5)          -143.6595         estimate D2E/DX2                !
 ! D22   D(13,2,3,21)          -22.6799         estimate D2E/DX2                !
 ! D23   D(2,3,21,22)         -179.74           estimate D2E/DX2                !
 ! D24   D(2,3,21,23)          -59.849          estimate D2E/DX2                !
 ! D25   D(2,3,21,24)           60.259          estimate D2E/DX2                !
 ! D26   D(4,3,21,22)           58.719          estimate D2E/DX2                !
 ! D27   D(4,3,21,23)          178.61           estimate D2E/DX2                !
 ! D28   D(4,3,21,24)          -61.282          estimate D2E/DX2                !
 ! D29   D(5,3,21,22)          -58.1494         estimate D2E/DX2                !
 ! D30   D(5,3,21,23)           61.7416         estimate D2E/DX2                !
 ! D31   D(5,3,21,24)         -178.1504         estimate D2E/DX2                !
 ! D32   D(9,6,8,11)           166.5411         estimate D2E/DX2                !
 ! D33   D(9,6,8,14)           -71.1835         estimate D2E/DX2                !
 ! D34   D(9,6,8,15)            46.3884         estimate D2E/DX2                !
 ! D35   D(10,6,8,11)          -75.2918         estimate D2E/DX2                !
 ! D36   D(10,6,8,14)           46.9836         estimate D2E/DX2                !
 ! D37   D(10,6,8,15)          164.5555         estimate D2E/DX2                !
 ! D38   D(20,6,8,11)           43.0445         estimate D2E/DX2                !
 ! D39   D(20,6,8,14)          165.3199         estimate D2E/DX2                !
 ! D40   D(20,6,8,15)          -77.1082         estimate D2E/DX2                !
 ! D41   D(8,6,20,18)          -18.4715         estimate D2E/DX2                !
 ! D42   D(8,6,20,19)          164.7348         estimate D2E/DX2                !
 ! D43   D(9,6,20,18)         -144.8761         estimate D2E/DX2                !
 ! D44   D(9,6,20,19)           38.3302         estimate D2E/DX2                !
 ! D45   D(10,6,20,18)         102.6629         estimate D2E/DX2                !
 ! D46   D(10,6,20,19)         -74.1308         estimate D2E/DX2                !
 ! D47   D(12,7,11,8)          170.5304         estimate D2E/DX2                !
 ! D48   D(12,7,11,16)         -68.0544         estimate D2E/DX2                !
 ! D49   D(12,7,11,17)          49.1078         estimate D2E/DX2                !
 ! D50   D(13,7,11,8)          -67.0775         estimate D2E/DX2                !
 ! D51   D(13,7,11,16)          54.3377         estimate D2E/DX2                !
 ! D52   D(13,7,11,17)         171.5            estimate D2E/DX2                !
 ! D53   D(18,7,11,8)           52.6604         estimate D2E/DX2                !
 ! D54   D(18,7,11,16)         174.0756         estimate D2E/DX2                !
 ! D55   D(18,7,11,17)         -68.7621         estimate D2E/DX2                !
 ! D56   D(11,7,18,20)         -28.5133         estimate D2E/DX2                !
 ! D57   D(12,7,18,20)        -150.7595         estimate D2E/DX2                !
 ! D58   D(13,7,18,20)          93.8606         estimate D2E/DX2                !
 ! D59   D(6,8,11,7)           -59.7058         estimate D2E/DX2                !
 ! D60   D(6,8,11,16)         -179.0673         estimate D2E/DX2                !
 ! D61   D(6,8,11,17)           61.8201         estimate D2E/DX2                !
 ! D62   D(14,8,11,7)          179.0668         estimate D2E/DX2                !
 ! D63   D(14,8,11,16)          59.7053         estimate D2E/DX2                !
 ! D64   D(14,8,11,17)         -59.4073         estimate D2E/DX2                !
 ! D65   D(15,8,11,7)           60.8434         estimate D2E/DX2                !
 ! D66   D(15,8,11,16)         -58.5181         estimate D2E/DX2                !
 ! D67   D(15,8,11,17)        -177.6307         estimate D2E/DX2                !
 ! D68   D(7,18,20,6)           10.7302         estimate D2E/DX2                !
 ! D69   D(7,18,20,19)        -172.3632         estimate D2E/DX2                !
 ! D70   D(29,25,26,27)        -82.5492         estimate D2E/DX2                !
 ! D71   D(29,25,26,30)        154.9999         estimate D2E/DX2                !
 ! D72   D(29,25,26,33)         39.4358         estimate D2E/DX2                !
 ! D73   D(32,25,26,27)        162.0605         estimate D2E/DX2                !
 ! D74   D(32,25,26,30)         39.6096         estimate D2E/DX2                !
 ! D75   D(32,25,26,33)        -75.9545         estimate D2E/DX2                !
 ! D76   D(35,25,26,27)         39.482          estimate D2E/DX2                !
 ! D77   D(35,25,26,30)        -82.9689         estimate D2E/DX2                !
 ! D78   D(35,25,26,33)        161.467          estimate D2E/DX2                !
 ! D79   D(26,25,35,36)        -82.8914         estimate D2E/DX2                !
 ! D80   D(26,25,35,37)        161.5483         estimate D2E/DX2                !
 ! D81   D(26,25,35,38)         39.5615         estimate D2E/DX2                !
 ! D82   D(29,25,35,36)         39.6988         estimate D2E/DX2                !
 ! D83   D(29,25,35,37)        -75.8614         estimate D2E/DX2                !
 ! D84   D(29,25,35,38)        162.1517         estimate D2E/DX2                !
 ! D85   D(32,25,35,36)        155.0822         estimate D2E/DX2                !
 ! D86   D(32,25,35,37)         39.5219         estimate D2E/DX2                !
 ! D87   D(32,25,35,38)        -82.465          estimate D2E/DX2                !
 ! D88   D(25,26,27,31)         15.1336         estimate D2E/DX2                !
 ! D89   D(25,26,27,34)        131.2478         estimate D2E/DX2                !
 ! D90   D(25,26,27,49)       -108.2829         estimate D2E/DX2                !
 ! D91   D(30,26,27,31)        138.6363         estimate D2E/DX2                !
 ! D92   D(30,26,27,34)       -105.2495         estimate D2E/DX2                !
 ! D93   D(30,26,27,49)         15.2198         estimate D2E/DX2                !
 ! D94   D(33,26,27,31)       -106.4123         estimate D2E/DX2                !
 ! D95   D(33,26,27,34)          9.7019         estimate D2E/DX2                !
 ! D96   D(33,26,27,49)        130.1712         estimate D2E/DX2                !
 ! D97   D(26,27,49,28)         96.9081         estimate D2E/DX2                !
 ! D98   D(26,27,49,41)       -105.891          estimate D2E/DX2                !
 ! D99   D(31,27,49,28)        -27.9225         estimate D2E/DX2                !
 ! D100  D(31,27,49,41)        129.2784         estimate D2E/DX2                !
 ! D101  D(34,27,49,28)       -140.7299         estimate D2E/DX2                !
 ! D102  D(34,27,49,41)         16.471          estimate D2E/DX2                !
 ! D103  D(1,28,49,27)         138.9368         estimate D2E/DX2                !
 ! D104  D(1,28,49,41)         -17.5565         estimate D2E/DX2                !
 ! D105  D(50,28,49,27)        -31.6929         estimate D2E/DX2                !
 ! D106  D(50,28,49,41)        171.8138         estimate D2E/DX2                !
 ! D107  D(1,28,50,38)         157.1919         estimate D2E/DX2                !
 ! D108  D(1,28,50,45)           0.7166         estimate D2E/DX2                !
 ! D109  D(49,28,50,38)        -31.7129         estimate D2E/DX2                !
 ! D110  D(49,28,50,45)        171.8118         estimate D2E/DX2                !
 ! D111  D(25,35,38,39)         15.1105         estimate D2E/DX2                !
 ! D112  D(25,35,38,40)        131.2156         estimate D2E/DX2                !
 ! D113  D(25,35,38,50)       -108.3066         estimate D2E/DX2                !
 ! D114  D(36,35,38,39)        138.6124         estimate D2E/DX2                !
 ! D115  D(36,35,38,40)       -105.2825         estimate D2E/DX2                !
 ! D116  D(36,35,38,50)         15.1952         estimate D2E/DX2                !
 ! D117  D(37,35,38,39)       -106.4341         estimate D2E/DX2                !
 ! D118  D(37,35,38,40)          9.671          estimate D2E/DX2                !
 ! D119  D(37,35,38,50)        130.1488         estimate D2E/DX2                !
 ! D120  D(35,38,50,28)         96.894          estimate D2E/DX2                !
 ! D121  D(35,38,50,45)       -105.9242         estimate D2E/DX2                !
 ! D122  D(39,38,50,28)        -27.933          estimate D2E/DX2                !
 ! D123  D(39,38,50,45)        129.2488         estimate D2E/DX2                !
 ! D124  D(40,38,50,28)       -140.7398         estimate D2E/DX2                !
 ! D125  D(40,38,50,45)         16.4421         estimate D2E/DX2                !
 ! D126  D(42,41,49,27)       -176.3795         estimate D2E/DX2                !
 ! D127  D(42,41,49,28)        -16.8701         estimate D2E/DX2                !
 ! D128  D(43,41,49,27)        -55.8325         estimate D2E/DX2                !
 ! D129  D(43,41,49,28)        103.6769         estimate D2E/DX2                !
 ! D130  D(44,41,49,27)         64.268          estimate D2E/DX2                !
 ! D131  D(44,41,49,28)       -136.2227         estimate D2E/DX2                !
 ! D132  D(47,45,46,1)         -92.8027         estimate D2E/DX2                !
 ! D133  D(48,45,46,1)         149.3871         estimate D2E/DX2                !
 ! D134  D(50,45,46,1)          29.0377         estimate D2E/DX2                !
 ! D135  D(46,45,50,28)        -16.9267         estimate D2E/DX2                !
 ! D136  D(46,45,50,38)       -176.4164         estimate D2E/DX2                !
 ! D137  D(47,45,50,28)        103.623          estimate D2E/DX2                !
 ! D138  D(47,45,50,38)        -55.8666         estimate D2E/DX2                !
 ! D139  D(48,45,50,28)       -136.2747         estimate D2E/DX2                !
 ! D140  D(48,45,50,38)         64.2356         estimate D2E/DX2                !
 --------------------------------------------------------------------------------
 Trust Radius=3.00D-01 FncErr=1.00D-07 GrdErr=1.00D-06
 Number of steps in this run=    300 maximum allowed number of steps=    300.
 GradGradGradGradGradGradGradGradGradGradGradGradGradGradGradGradGradGrad

 Leave Link  103 at Sun Nov 21 21:41:00 2021, MaxMem=  6710886400 cpu:         0.2
 (Enter /usr/local/gqt/g09/l202.exe)
                          Input orientation:                          
 ---------------------------------------------------------------------
 Center     Atomic      Atomic             Coordinates (Angstroms)
 Number     Number       Type             X           Y           Z
 ---------------------------------------------------------------------
      1          1           0       -0.376111    0.320802    0.522453
      2          8           0       -1.346941    0.447681    0.690519
      3          6           0       -1.557205    0.663364    2.065384
      4          1           0       -1.150697   -0.167650    2.651618
      5          1           0       -1.038038    1.569481    2.396654
      6          6           0       -6.143861    0.770418   -0.548801
      7          6           0       -3.843749   -0.812902   -1.264716
      8          6           0       -5.026342    1.344017   -1.403744
      9          1           0       -6.482547    1.462464    0.217769
     10          1           0       -7.015978    0.555717   -1.170870
     11          6           0       -4.394637    0.224052   -2.207936
     12          1           0       -3.527735   -1.712300   -1.783781
     13          1           0       -3.004195   -0.419060   -0.693297
     14          1           0       -5.422732    2.123236   -2.050814
     15          1           0       -4.269835    1.808679   -0.770373
     16          1           0       -3.575365    0.589758   -2.824624
     17          1           0       -5.131257   -0.222687   -2.877440
     18          8           0       -4.819203   -1.273381   -0.299988
     19          8           0       -6.507409   -0.956184    1.045729
     20          6           0       -5.831081   -0.531482    0.138487
     21          6           0       -3.035708    0.798700    2.341075
     22          1           0       -3.214773    0.970789    3.401288
     23          1           0       -3.455444    1.636405    1.785576
     24          1           0       -3.565914   -0.105984    2.048401
     25          6           0        5.846689   -0.319412   -1.325248
     26          6           0        5.092039    1.000423   -1.502665
     27          6           0        4.117545    1.303802   -0.360191
     28          6           0        1.893355    0.132971   -0.371953
     29          1           0        6.702965   -0.166766   -0.667287
     30          1           0        4.541094    1.003659   -2.441525
     31          1           0        4.331324    0.663660    0.493730
     32          1           0        6.258904   -0.617602   -2.289921
     33          1           0        5.817573    1.808471   -1.584730
     34          1           0        4.272300    2.323623   -0.017698
     35          6           0        4.990617   -1.454583   -0.758472
     36          1           0        4.935040   -1.387673    0.326615
     37          1           0        5.484109   -2.402194   -0.969640
     38          6           0        3.566563   -1.483889   -1.322618
     39          1           0        3.504315   -0.861287   -2.213246
     40          1           0        3.328977   -2.494317   -1.644904
     41          6           0        2.015253    2.482417   -0.752609
     42          1           0        0.953212    2.323343   -0.892748
     43          1           0        2.172783    3.090263    0.141602
     44          1           0        2.402767    3.032384   -1.609643
     45          6           0        1.668015   -2.204622    0.033657
     46          1           0        0.844530   -1.829723    0.628783
     47          1           0        1.271849   -2.784708   -0.803259
     48          1           0        2.272054   -2.868598    0.651246
     49          7           0        2.676225    1.193983   -0.638642
     50          7           0        2.465444   -1.083153   -0.431512
 ---------------------------------------------------------------------
                    Distance matrix (angstroms):
                    1          2          3          4          5
     1  H    0.000000
     2  O    0.993406   0.000000
     3  C    1.973061   1.407474   0.000000
     4  H    2.317739   2.064716   1.095218   0.000000
     5  H    2.347334   2.065128   1.095592   1.759353   0.000000
     6  C    5.883594   4.964928   5.280420   6.004527   5.948415
     7  C    4.062483   3.412633   4.300838   4.796514   5.191666
     8  C    5.136327   4.327511   4.953085   5.809623   5.513658
     9  H    6.219709   5.256208   5.320830   6.083545   5.865294
    10  H    6.856410   5.967782   6.346899   7.038195   7.034964
    11  C    4.859314   4.211829   5.148328   5.855924   5.854843
    12  H    4.402835   3.942530   4.933846   5.263936   5.868962
    13  H    2.988690   2.326516   3.297839   3.832378   4.167477
    14  H    5.944649   5.189842   5.832376   6.753614   6.269941
    15  H    4.364203   3.539750   4.087986   5.034374   4.531202
    16  H    4.637940   4.164407   5.290611   6.036713   5.887243
    17  H    5.870781   5.244118   6.163639   6.813103   6.912480
    18  O    4.791544   3.999970   4.470637   4.836585   5.445269
    19  O    6.284690   5.359799   5.307273   5.647568   6.173978
    20  C    5.534484   4.622879   4.838037   5.324866   5.699704
    21  C    3.257181   2.387359   1.510064   2.140919   2.141933
    22  H    4.094896   3.333273   2.150972   2.473552   2.471011
    23  H    3.578908   2.656690   2.151375   3.052295   2.494343
    24  H    3.561672   2.659742   2.151069   2.490170   3.052642
    25  C    6.522815   7.509997   8.202431   8.049963   8.051083
    26  C    5.870575   6.824664   7.553610   7.589085   7.287411
    27  C    4.683833   5.630057   6.204544   6.244240   5.852419
    28  C    2.446573   3.424530   4.257733   4.301001   4.280398
    29  H    7.194896   8.186707   8.739967   8.526145   8.504435
    30  H    5.781900   6.692366   7.590605   7.727131   7.406406
    31  H    4.719992   5.685778   6.094660   5.949800   5.768161
    32  H    7.267288   8.238127   9.038867   8.917592   8.943863
    33  H    6.709330   7.639291   8.307946   8.390977   7.931453
    34  H    5.090263   5.966288   6.409276   6.537628   5.881965
    35  C    5.796079   6.773686   7.438671   7.141474   7.446104
    36  H    5.582612   6.554711   7.027041   6.627993   6.979074
    37  H    6.631985   7.585589   8.257670   7.882090   8.345331
    38  C    4.712311   5.650328   6.507092   6.307105   6.660210
    39  H    4.892759   5.803442   6.800751   6.768838   6.913232
    40  H    5.133226   5.997813   6.900142   6.628798   7.205516
    41  C    3.466552   4.186540   4.900255   5.351155   4.480390
    42  H    2.789277   3.363859   4.219985   4.816016   3.918361
    43  H    3.783097   4.435427   4.848050   5.287693   4.208017
    44  H    4.429522   5.102131   5.899106   6.405128   5.479930
    45  C    3.285596   4.068924   4.770252   4.352943   5.210598
    46  H    2.475081   3.161159   3.748018   3.291699   4.268960
    47  H    3.757323   4.420155   5.303005   4.965269   5.876562
    48  H    4.147485   4.908806   5.397941   4.797065   5.805144
    49  N    3.380435   4.302267   5.051261   5.227350   4.811421
    50  N    3.309920   4.258719   5.046436   4.839454   5.225838
                    6          7          8          9         10
     6  C    0.000000
     7  C    2.882699   0.000000
     8  C    1.519471   2.463768   0.000000
     9  H    1.086860   3.786596   2.182628   0.000000
    10  H    1.092545   3.456148   2.152742   1.742142   0.000000
    11  C    2.472050   1.506126   1.516607   3.431775   2.838474
    12  H    3.812241   1.085454   3.425102   4.776635   4.205639
    13  H    3.360542   1.089258   2.775293   4.058215   4.156040
    14  H    2.146203   3.425207   1.087661   2.589652   2.402051
    15  H    2.153846   2.701594   1.090584   2.447935   3.044932
    16  H    3.436449   2.114899   2.166366   4.297613   3.817575
    17  H    2.726570   2.146371   2.153450   3.774392   2.659035
    18  O    2.448212   1.447153   2.848150   3.243398   2.988286
    19  O    2.378203   3.528990   3.672111   2.556559   2.730897
    20  C    1.505038   2.449013   2.558042   2.099170   2.073740
    21  C    4.244149   4.031367   4.275940   4.102403   5.313694
    22  H    4.921677   5.034755   5.148729   4.588560   5.960375
    23  H    3.664265   3.931179   3.567208   3.413448   4.752459
    24  H    3.762891   3.399069   4.019037   3.783912   4.764923
    25  C   12.064986   9.703184  10.999816  12.552531  12.893327
    26  C   11.278662   9.121024  10.124696  11.710867  12.120723
    27  C   10.276990   8.287388   9.203330  10.617022  11.188037
    28  C    8.064394   5.882691   7.100241   8.501238   8.955065
    29  H   12.881510  10.583364  11.849113  13.315233  13.747181
    30  H   10.853804   8.659698   9.629572  11.349141  11.635340
    31  H   10.527477   8.491419   9.572315  10.846845  11.469255
    32  H   12.601059  10.156416  11.488692  13.151417  13.373535
    33  H   12.051000  10.015745  10.855366  12.436305  12.901190
    34  H   10.544711   8.789943   9.452274  10.791838  11.483924
    35  C   11.356548   8.872095  10.420557  11.878371  12.180710
    36  H   11.321031   8.940348  10.473080  11.768450  12.200248
    37  H   12.060359   9.466882  11.166563  12.631167  12.846864
    38  C    9.998651   7.440853   9.046637  10.584819  10.778367
    39  H    9.925731   7.409190   8.848207  10.537887  10.666350
    40  H   10.079414   7.376971   9.197952  10.742051  10.795624
    41  C    8.339282   6.741609   7.162681   8.613626   9.243931
    42  H    7.273123   5.743277   6.080729   7.567356   8.167609
    43  H    8.661692   7.308289   7.567356   8.807399   9.621842
    44  H    8.904309   7.343307   7.621328   9.206133   9.748803
    45  C    8.379471   5.831141   7.711899   8.939412   9.191414
    46  H    7.548844   5.157444   6.976455   8.043226   8.409320
    47  H    8.227784   5.501846   7.554744   8.900091   8.943246
    48  H    9.247171   6.730516   8.673851   9.776965  10.065465
    49  N    8.830707   6.850519   7.741927   9.202642   9.727767
    50  N    8.807361   6.369708   7.934938   9.325678   9.650384
                   11         12         13         14         15
    11  C    0.000000
    12  H    2.163535   0.000000
    13  H    2.154310   1.770796   0.000000
    14  H    2.165310   4.286450   3.762372   0.000000
    15  H    2.143177   3.738315   2.563319   1.751470   0.000000
    16  H    1.088693   2.526874   2.426212   2.522519   2.487570
    17  H    1.091064   2.446696   3.055067   2.504321   3.050939
    18  O    2.462281   2.015485   2.044214   3.868675   3.165780
    19  O    4.055009   4.178073   3.947812   4.499770   3.993674
    20  C    2.853052   3.224104   2.948862   3.465157   2.956327
    21  C    4.782302   4.854034   3.269762   5.171167   3.496317
    22  H    5.780406   5.846525   4.329163   5.994050   4.383831
    23  H    4.338774   4.894830   3.251672   4.338792   2.688082
    24  H    4.348806   4.155397   2.816106   5.022027   3.479501
    25  C   10.293651   9.488425   8.873975  11.553909  10.352812
    26  C    9.544484   9.040929   8.259480  10.588748   9.425190
    27  C    8.777088   8.341090   7.334739   9.723506   8.412568
    28  C    6.551180   5.898007   4.939027   7.765620   6.399347
    29  H   11.210848  10.406847   9.710473  12.417358  11.149679
    30  H    8.972716   8.539032   7.874758  10.034139   9.004070
    31  H    9.145199   8.520391   7.509405  10.185612   8.768635
    32  H   10.687050   9.860672   9.401789  12.001249  10.911013
    33  H   10.353164   9.988505   9.142218  11.254367  10.120226
    34  H    9.182654   8.958140   7.805519   9.907944   8.590678
    35  C    9.643742   8.583706   8.061859  11.086423   9.818604
    36  H    9.801249   8.727984   8.062870  11.192055   9.805599
    37  H   10.296609   9.074806   8.721267  11.857809  10.625939
    38  C    8.190333   7.112939   6.686162   9.713344   8.517929
    39  H    7.973170   7.096365   6.698247   9.414135   8.345539
    40  H    8.207359   6.902560   6.732111   9.903483   8.776248
    41  C    6.950171   7.027353   5.798012   7.558966   6.321121
    42  H    5.893745   6.095838   4.818882   6.483349   5.249769
    43  H    7.540988   7.698547   6.309795   7.964526   6.631854
    44  H    7.378982   7.596920   6.479768   7.890476   6.835601
    45  C    6.904995   5.526417   5.054329   8.564699   7.211873
    46  H    6.301892   4.995093   4.307035   7.879384   6.430578
    47  H    6.567710   5.014727   4.888040   8.394148   7.197954
    48  H    7.885694   6.395618   5.970497   9.561865   8.166654
    49  N    7.307567   6.946002   5.905257   8.273503   6.974450
    50  N    7.205912   6.175973   5.516022   8.667548   7.337677
                   16         17         18         19         20
    16  H    0.000000
    17  H    1.756034   0.000000
    18  O    3.375234   2.800820   0.000000
    19  O    5.095729   4.221737   2.182111   0.000000
    20  C    3.889147   3.111418   1.329124   1.208668   0.000000
    21  C    5.198012   5.715545   3.801261   4.100030   3.799327
    22  H    6.247975   6.672310   4.616269   4.483674   4.443845
    23  H    4.729037   5.292286   3.830962   4.072270   3.613348
    24  H    4.922450   5.169896   2.906627   3.221891   2.993293
    25  C    9.583831  11.087558  10.757438  12.595664  11.771058
    26  C    8.777250  10.387578  10.239596  12.036188  11.151442
    27  C    8.109510   9.706032   9.301127  10.953255  10.128776
    28  C    6.010918   7.466533   6.858676   8.588883   7.769746
    29  H   10.529506  12.038966  11.581013  13.344347  12.565214
    30  H    8.136030   9.759525   9.868447  11.750376  10.797923
    31  H    8.575119  10.084188   9.386920  10.973000  10.238606
    32  H    9.922524  11.412139  11.274499  13.199240  12.331761
    33  H    9.552481  11.210423  11.148515  12.902241  12.005665
    34  H    8.512988  10.153260   9.781286  11.317691  10.500206
    35  C    9.045682  10.414410   9.822200  11.649384  10.897972
    36  H    9.288031  10.627958   9.775016  11.473140  10.801750
    37  H    9.719404  11.003452  10.386573  12.245373  11.522197
    38  C    7.587039   8.925255   8.450512  10.362068   9.558118
    39  H    7.252668   8.684588   8.550517  10.529223   9.632707
    40  H    7.653313   8.846186   8.348193  10.313091   9.536240
    41  C    6.255431   7.931274   7.811573   9.364495   8.452372
    42  H    5.219719   6.887818   6.827046   8.376984   7.432369
    43  H    6.934856   8.569671   8.253742   9.619611   8.785152
    44  H    6.571199   8.304475   8.509504  10.116862   9.140752
    45  C    6.593282   7.657197   6.562205   8.331894   7.684194
    46  H    6.108632   7.112397   5.766282   7.415384   6.818329
    47  H    6.242469   7.201802   6.295896   8.202385   7.511027
    48  H    7.631134   8.617510   7.330449   8.993993   8.449014
    49  N    6.650262   8.244753   7.898355   9.581203   8.715240
    50  N    6.709470   8.027006   7.288317   9.094528   8.334360
                   21         22         23         24         25
    21  C    0.000000
    22  H    1.088913   0.000000
    23  H    1.089269   1.763942   0.000000
    24  H    1.088683   1.764382   1.765559   0.000000
    25  C    9.674144  10.301206  10.001606  10.001207   0.000000
    26  C    8.993069   9.646386   9.180221   9.423076   1.530666
    27  C    7.662962   8.247576   7.878141   8.174616   2.560488
    28  C    5.665631   6.405643   5.960276   5.976523   4.091732
    29  H   10.238365  10.780022  10.604774  10.622078   1.090606
    30  H    8.962321   9.710459   9.067159   9.333505   2.168218
    31  H    7.596321   8.092701   7.952915   8.085526   2.563482
    32  H   10.480546  11.165277  10.773058  10.752202   1.090611
    33  H    9.737154  10.351105   9.868000  10.242784   2.143844
    34  H    7.829188   8.341216   7.965054   8.462231   3.342756
    35  C    8.894176   9.513909   9.346782   9.105574   1.530590
    36  H    8.507120   9.024157   9.037358   8.767753   2.168165
    37  H    9.684722  10.303037  10.189068   9.812445   2.143806
    38  C    7.888145   8.621325   8.288889   8.008409   2.560272
    39  H    8.140596   8.945705   8.406384   8.289768   2.562983
    40  H    8.200074   8.960562   8.652134   8.178274   3.342344
    41  C    6.157759   6.847850   6.089881   6.759801   4.781010
    42  H    5.356644   6.135165   5.203994   5.913923   5.578290
    43  H    6.100600   6.644056   6.040968   6.839921   5.222558
    44  H    7.083398   7.804893   6.913386   7.671752   4.814147
    45  C    6.038968   6.727986   6.638716   5.988113   4.781417
    46  H    4.989669   5.657525   5.642871   4.943542   5.578608
    47  H    6.425161   7.204981   6.971055   6.221855   5.222960
    48  H    6.669103   7.239399   7.374686   6.608021   4.814861
    49  N    6.454544   7.146657   6.608323   6.919134   3.579613
    50  N    6.441373   7.153593   6.882470   6.594096   3.579788
                   26         27         28         29         30
    26  C    0.000000
    27  C    1.531967   0.000000
    28  C    3.501794   2.513565   0.000000
    29  H    2.157607   2.990196   4.827983   0.000000
    30  H    1.088581   2.145095   3.471563   3.031749   0.000000
    31  H    2.162796   1.088423   2.640972   2.768076   2.962318
    32  H    2.144610   3.464256   4.827005   1.741661   2.366927
    33  H    1.089071   2.155060   4.435947   2.350996   1.735286
    34  H    2.151268   1.086869   3.253281   3.540075   2.772993
    35  C    2.567326   2.920542   3.501822   2.144510   3.012921
    36  H    3.012294   2.895520   3.471628   2.367281   3.679166
    37  H    3.466358   3.996665   4.435967   2.564014   3.828258
    38  C    2.920840   3.000179   2.513489   3.464288   2.896474
    39  H    2.547893   2.915043   2.640852   3.619904   2.145937
    40  H    3.916865   4.086323   3.253314   4.213909   3.786776
    41  C    3.496498   2.441875   2.383203   5.385173   3.379206
    42  H    4.387710   3.366910   2.439841   6.269859   4.124703
    43  H    3.948810   2.687999   3.014531   5.637826   4.078647
    44  H    3.372313   2.736712   3.193427   5.441902   3.062710
    45  C    4.935234   4.297017   2.383199   5.476760   4.967311
    46  H    5.531196   4.637852   2.440014   6.226274   5.578479
    47  H    5.423120   5.001021   3.014157   6.030682   5.265321
    48  H    5.249854   4.673089   3.193707   5.354568   5.450518
    49  N    2.572967   1.472073   1.345272   4.250540   2.600836
    50  N    3.519611   2.903805   1.345285   4.341882   3.564164
                   31         32         33         34         35
    31  H    0.000000
    32  H    3.620208   0.000000
    33  H    2.799915   2.564741   0.000000
    34  H    1.737964   4.214308   2.260274   0.000000
    35  C    2.547474   2.157412   3.466133   3.916575   0.000000
    36  H    2.144846   3.031813   3.827198   3.785696   1.088567
    37  H    3.587454   2.351217   4.268400   4.970716   1.089080
    38  C    2.914781   2.989119   3.996923   4.086322   1.532009
    39  H    3.215140   2.766409   3.588008   3.943841   2.162743
    40  H    3.943510   3.538726   4.970988   5.172060   2.151246
    41  C    3.197722   5.475584   3.950224   2.378985   4.934855
    42  H    4.011049   6.225079   4.940237   3.432500   5.530948
    43  H    3.266757   6.029673   4.231750   2.240778   5.422725
    44  H    3.708688   5.353034   3.627601   2.555735   5.249222
    45  C    3.941056   5.384599   5.995242   5.223977   3.497100
    46  H    4.288698   6.269251   6.547309   5.423820   4.388079
    47  H    4.788925   5.637130   6.509347   5.976190   3.949744
    48  H    4.091729   5.441729   6.280547   5.604250   3.373029
    49  N    2.074334   4.340985   3.337776   2.051612   3.519328
    50  N    2.718260   4.249796   4.574732   3.878414   2.573201
                   36         37         38         39         40
    36  H    0.000000
    37  H    1.735226   0.000000
    38  C    2.145217   2.155194   0.000000
    39  H    2.962254   2.800095   1.088451   0.000000
    40  H    2.773263   2.260323   1.086867   1.737970   0.000000
    41  C    4.966636   5.994955   4.296866   3.940954   5.223977
    42  H    5.577942   6.547186   4.637823   4.288789   5.424006
    43  H    5.264618   6.508981   5.000943   4.788845   5.976280
    44  H    5.449624   6.280041   4.672636   4.091261   5.603885
    45  C    3.380337   3.950723   2.442011   3.197674   2.379135
    46  H    4.125407   4.940483   3.367050   4.011166   3.432756
    47  H    4.080108   4.232863   2.688414   3.266728   2.241533
    48  H    3.064313   3.627961   2.736660   3.708514   2.555285
    49  N    3.563553   4.574523   2.903709   2.718317   3.878428
    50  N    2.601229   3.337932   1.472115   2.074380   2.051680
                   41         42         43         44         45
    41  C    0.000000
    42  H    1.082994   0.000000
    43  H    1.092660   1.773528   0.000000
    44  H    1.089558   1.765754   1.767230   0.000000
    45  C    4.765199   4.676712   5.319986   5.537736   0.000000
    46  H    4.676899   4.424344   5.119362   5.574830   1.082983
    47  H    5.319569   5.118761   6.018283   5.980617   1.092646
    48  H    5.538060   5.574900   5.981439   6.320624   1.089561
    49  N    1.452561   2.075764   2.111425   2.096984   3.608183
    50  N    3.608194   3.755502   4.222738   4.281304   1.452573
                   46         47         48         49         50
    46  H    0.000000
    47  H    1.773511   0.000000
    48  H    1.765670   1.767210   0.000000
    49  N    3.755565   4.222481   4.281556   0.000000
    50  N    2.075802   2.111433   2.097040   2.296232   0.000000
 Stoichiometry    C15H30N2O3
 Framework group  C1[X(C15H30N2O3)]
 Deg. of freedom   144
 Full point group                 C1      NOp   1
 Largest Abelian subgroup         C1      NOp   1
 Largest concise Abelian subgroup C1      NOp   1
                         Standard orientation:                         
 ---------------------------------------------------------------------
 Center     Atomic      Atomic             Coordinates (Angstroms)
 Number     Number       Type             X           Y           Z
 ---------------------------------------------------------------------
      1          1           0       -0.058468    0.376783    0.810618
      2          8           0       -1.040449    0.507202    0.885187
      3          6           0       -1.363498    0.865605    2.207371
      4          1           0       -1.001815    0.107818    2.910539
      5          1           0       -0.877985    1.809164    2.479945
      6          6           0       -5.721721    0.627998   -0.764544
      7          6           0       -3.362374   -0.990192   -1.117945
      8          6           0       -4.541164    1.122632   -1.583332
      9          1           0       -6.125604    1.393166   -0.106773
     10          1           0       -6.538933    0.335773   -1.428188
     11          6           0       -3.839884   -0.067853   -2.208674
     12          1           0       -3.000202   -1.935371   -1.509964
     13          1           0       -2.574434   -0.525742   -0.526405
     14          1           0       -4.887516    1.822567   -2.340391
     15          1           0       -3.841433    1.662940   -0.944728
     16          1           0       -2.974929    0.241359   -2.793047
     17          1           0       -4.516938   -0.593924   -2.883409
     18          8           0       -4.410918   -1.358629   -0.191090
     19          8           0       -6.205108   -0.923248    0.972068
     20          6           0       -5.459191   -0.588452    0.081900
     21          6           0       -2.860286    1.008780    2.346725
     22          1           0       -3.126299    1.290654    3.364328
     23          1           0       -3.237701    1.776318    1.672225
     24          1           0       -3.359962    0.070615    2.111351
     25          6           0        6.297831   -0.369473   -0.449412
     26          6           0        5.553158    0.913073   -0.828193
     27          6           0        4.486964    1.323053    0.192627
     28          6           0        2.277461    0.126440    0.127626
     29          1           0        7.096654   -0.135328    0.255200
     30          1           0        5.080759    0.808183   -1.803307
     31          1           0        4.633674    0.780918    1.124952
     32          1           0        6.789078   -0.763217   -1.339960
     33          1           0        6.278642    1.717867   -0.937991
     34          1           0        4.607764    2.375716    0.434685
     35          6           0        5.404390   -1.449519    0.165382
     36          1           0        5.259980   -1.267813    1.228917
     37          1           0        5.918544   -2.407222    0.097967
     38          6           0        4.031371   -1.559019   -0.505347
     39          1           0        4.038777   -1.036109   -1.459934
     40          1           0        3.826317   -2.601351   -0.735076
     41          6           0        2.417497    2.423230   -0.492699
     42          1           0        1.371323    2.235137   -0.700103
     43          1           0        2.498184    3.125324    0.340643
     44          1           0        2.870797    2.883857   -1.369899
     45          6           0        2.032231   -2.157356    0.763059
     46          1           0        1.160880   -1.732642    1.245985
     47          1           0        1.708879   -2.829091   -0.035747
     48          1           0        2.587327   -2.742943    1.495245
     49          7           0        3.073823    1.163800   -0.187729
     50          7           0        2.858996   -1.080899    0.245692
 ---------------------------------------------------------------------
 Rotational constants (GHZ):      0.6235552      0.0947887      0.0935126
 Leave Link  202 at Sun Nov 21 21:41:00 2021, MaxMem=  6710886400 cpu:         0.1
 (Enter /usr/local/gqt/g09/l301.exe)
 Standard basis: 6-311+G(d,p) (5D, 7F)
 Ernie: Thresh=  0.10000D-02 Tol=  0.10000D-05 Strict=F.
 There are   640 symmetry adapted cartesian basis functions of A   symmetry.
 There are   620 symmetry adapted basis functions of A   symmetry.
   620 basis functions,   960 primitive gaussians,   640 cartesian basis functions
    79 alpha electrons       79 beta electrons
       nuclear repulsion energy      1586.0298844620 Hartrees.
 IExCor= 5547 DFT=T Ex+Corr=N12SX ExCW=0 ScaHFX=  0.250000
 ScaDFX=  1.000000  1.000000  1.000000  1.000000 ScalE2=  1.000000  1.000000
 IRadAn=      0 IRanWt=     -1 IRanGd=            0 ICorTp=0 IEmpDi=  4
  HFx wShort=  0.110000 wLong=  0.000000 cFull=  0.000000 cShort=  1.000000 cLong=  0.000000
  DFx wShort=  0.110000 wLong=  0.000000 cFull=  0.000000 cShort=  1.000000 cLong=  0.000000
 NAtoms=   50 NActive=   50 NUniq=   50 SFac= 1.00D+00 NAtFMM=   60 NAOKFM=F Big=F
 Integral buffers will be    131072 words long.
 Raffenetti 2 integral format.
 Two-electron integral symmetry is turned on.
 ------------------------------------------------------------------------------
 Polarizable Continuum Model (PCM)
 =================================
 Model                : PCM (using non-symmetric T matrix).
 Atomic radii         : UFF (Universal Force Field).
 Polarization charges : Total charges.
 Charge compensation  : None.
 Solution method      : On-the-fly selection.
 Cavity type          : Scaled VdW (van der Waals Surface) (Alpha=1.100).
 Cavity algorithm     : GePol (No added spheres)
                        Default sphere list used, NSphG=   50.
                        Lebedev-Laikov grids with approx.  5.0 points / Ang**2.
                        Smoothing algorithm: Karplus/York (Gamma=1.0000).
                        Polarization charges: spherical gaussians, with
                                              point-specific exponents (IZeta= 3).
                        Self-potential: point-specific (ISelfS= 7).
                        Self-field    : sphere-specific E.n sum rule (ISelfD= 2).
 1st derivatives      : Analytical E(r).r(x)/FMM algorithm (CHGder, D1EAlg=3).
                        Cavity 1st derivative terms included.
 Solvent              : Ethanol, Eps=  24.852000 Eps(inf)=   1.852593
 ------------------------------------------------------------------------------
 GePol: Number of generator spheres                  =      50
 GePol: Total number of spheres                      =      50
 GePol: Number of exposed spheres                    =      50 (100.00%)
 GePol: Number of points                             =    3496
 GePol: Average weight of points                     =       0.13
 GePol: Minimum weight of points                     =   0.48D-11
 GePol: Maximum weight of points                     =    0.20577
 GePol: Number of points with low weight             =     276
 GePol: Fraction of low-weight points (<1% of avg)   =       7.89%
 GePol: Cavity surface area                          =    446.915 Ang**2
 GePol: Cavity volume                                =    468.325 Ang**3
 Leave Link  301 at Sun Nov 21 21:41:00 2021, MaxMem=  6710886400 cpu:         0.8
 (Enter /usr/local/gqt/g09/l302.exe)
 NPDir=0 NMtPBC=     1 NCelOv=     1 NCel=       1 NClECP=     1 NCelD=      1
         NCelK=      1 NCelE2=     1 NClLst=     1 CellRange=     0.0.
 One-electron integrals computed using PRISM.
 NBasis=   620 RedAO= T EigKep=  1.04D-05  NBF=   620
 NBsUse=   620 1.00D-06 EigRej= -1.00D+00 NBFU=   620
 Precomputing XC quadrature grid using
 IXCGrd= 4 IRadAn=           0 IRanWt=          -1 IRanGd=           0 AccXCQ= 0.00D+00.
 Generated NRdTot=       0 NPtTot=           0 NUsed=           0 NTot=          32
 NSgBfM=   620   620   620   620   620 MxSgAt=    50 MxSgA2=    50.
 Leave Link  302 at Sun Nov 21 21:41:01 2021, MaxMem=  6710886400 cpu:        17.5
 (Enter /usr/local/gqt/g09/l303.exe)
 DipDrv:  MaxL=1.
 Leave Link  303 at Sun Nov 21 21:41:01 2021, MaxMem=  6710886400 cpu:         1.5
 (Enter /usr/local/gqt/g09/l401.exe)
 ExpMin= 4.38D-02 ExpMax= 8.59D+03 ExpMxC= 1.30D+03 IAcc=2 IRadAn=         4 AccDes= 0.00D+00
 Harris functional with IExCor= 5547 and IRadAn=       4 diagonalized for initial guess.
 HarFok:  IExCor= 5547 AccDes= 0.00D+00 IRadAn=         4 IDoV= 1 UseB2=F ITyADJ=14
 ICtDFT=  3500011 ScaDFX=  1.000000  1.000000  1.000000  1.000000
 FoFCou: FMM=F IPFlag=           0 FMFlag=      100000 FMFlg1=           0
         NFxFlg=           0 DoJE=T BraDBF=F KetDBF=T FulRan=T
         wScrn=  0.000000 ICntrl=     500 IOpCl=  0 I1Cent=   200000004 NGrid=           0
         NMat0=    1 NMatS0=      1 NMatT0=    0 NMatD0=    1 NMtDS0=    0 NMtDT0=    0
 Petite list used in FoFCou.
 Harris En= -895.924887556078    
 JPrj=0 DoOrth=F DoCkMO=F.
 Leave Link  401 at Sun Nov 21 21:41:04 2021, MaxMem=  6710886400 cpu:        43.7
 (Enter /usr/local/gqt/g09/l502.exe)
 Closed shell SCF:
 Using DIIS extrapolation, IDIIS=  1040.
 Integral symmetry usage will be decided dynamically.
 IVT=     1262390 IEndB=     1262390 NGot=  6710886400 MDV=  6710050891
 LenX=  6710050891 LenY=  6709640651
 Requested convergence on RMS density matrix=1.00D-08 within 128 cycles.
 Requested convergence on MAX density matrix=1.00D-06.
 Requested convergence on             energy=1.00D-06.
 No special actions if energy rises.
 Fock matrices will be formed incrementally for  20 cycles.

 Cycle   1  Pass 1  IDiag  1:
 FoFJK:  IHMeth= 1 ICntrl=       0 DoSepK=T KAlg= 0 I1Cent=   0 FoldK=F
 IRaf=         1 NMat=   1 IRICut=       1 DoRegI=T DoRafI=F ISym2E= 0.
 FoFCou: FMM=F IPFlag=           0 FMFlag=      100000 FMFlg1=           0
         NFxFlg=           0 DoJE=T BraDBF=F KetDBF=F FulRan=T
         wScrn=  0.000000 ICntrl=     500 IOpCl=  0 I1Cent=           0 NGrid=           0
         NMat0=    1 NMatS0=      1 NMatT0=    0 NMatD0=    1 NMtDS0=    0 NMtDT0=    0
 Symmetry not used in FoFCou.
 Inv3:  Mode=1 IEnd=    36666048.
 Iteration    1 A*A^-1 deviation from unit magnitude is 7.33D-15 for    203.
 Iteration    1 A*A^-1 deviation from orthogonality  is 4.37D-15 for   3452   3027.
 Iteration    1 A^-1*A deviation from unit magnitude is 8.55D-15 for    432.
 Iteration    1 A^-1*A deviation from orthogonality  is 1.03D-12 for   3069   3016.
 E= -924.243866451793    
 DIIS: error= 7.88D-02 at cycle   1 NSaved=   1.
 NSaved= 1 IEnMin= 1 EnMin= -924.243866451793     IErMin= 1 ErrMin= 7.88D-02
 ErrMax= 7.88D-02  0.00D+00 EMaxC= 1.00D-01 BMatC= 2.26D+00 BMatP= 2.26D+00
 IDIUse=3 WtCom= 2.12D-01 WtEn= 7.88D-01
 Coeff-Com:  0.100D+01
 Coeff-En:   0.100D+01
 Coeff:      0.100D+01
 Gap=     0.192 Goal=   None    Shift=    0.000
 GapD=    0.192 DampG=1.000 DampE=0.500 DampFc=0.5000 IDamp=-1.
 Damping current iteration by 5.00D-01
 RMSDP=2.93D-03 MaxDP=3.51D-01              OVMax= 1.15D-01

 Cycle   2  Pass 1  IDiag  1:
 RMSU=  1.22D-03    CP:  9.22D-01
 E= -924.376098782185     Delta-E=       -0.132232330392 Rises=F Damp=T
 DIIS: error= 3.42D-02 at cycle   2 NSaved=   2.
 NSaved= 2 IEnMin= 2 EnMin= -924.376098782185     IErMin= 2 ErrMin= 3.42D-02
 ErrMax= 3.42D-02  0.00D+00 EMaxC= 1.00D-01 BMatC= 4.64D-01 BMatP= 2.26D+00
 IDIUse=3 WtCom= 6.58D-01 WtEn= 3.42D-01
 Coeff-Com: -0.491D+00 0.149D+01
 Coeff-En:   0.611D-01 0.939D+00
 Coeff:     -0.302D+00 0.130D+01
 Gap=     0.186 Goal=   None    Shift=    0.000
 RMSDP=1.59D-03 MaxDP=1.72D-01 DE=-1.32D-01 OVMax= 2.20D-01

 Cycle   3  Pass 1  IDiag  1:
 RMSU=  1.44D-03    CP:  8.58D-01  9.50D-01
 E= -924.351202575798     Delta-E=        0.024896206387 Rises=F Damp=F
 DIIS: error= 4.30D-02 at cycle   3 NSaved=   3.
 NSaved= 3 IEnMin= 2 EnMin= -924.376098782185     IErMin= 2 ErrMin= 3.42D-02
 ErrMax= 4.30D-02  0.00D+00 EMaxC= 1.00D-01 BMatC= 2.88D-01 BMatP= 4.64D-01
 IDIUse=3 WtCom= 5.70D-01 WtEn= 4.30D-01
 Coeff-Com: -0.384D+00 0.866D+00 0.518D+00
 Coeff-En:   0.000D+00 0.557D+00 0.443D+00
 Coeff:     -0.219D+00 0.733D+00 0.486D+00
 Gap=     0.186 Goal=   None    Shift=    0.000
 RMSDP=1.15D-03 MaxDP=6.76D-02 DE= 2.49D-02 OVMax= 1.54D-01

 Cycle   4  Pass 1  IDiag  1:
 RMSU=  4.73D-04    CP:  8.54D-01  1.45D+00  4.12D-01
 E= -924.539027677501     Delta-E=       -0.187825101703 Rises=F Damp=F
 DIIS: error= 1.84D-02 at cycle   4 NSaved=   4.
 NSaved= 4 IEnMin= 4 EnMin= -924.539027677501     IErMin= 4 ErrMin= 1.84D-02
 ErrMax= 1.84D-02  0.00D+00 EMaxC= 1.00D-01 BMatC= 4.02D-02 BMatP= 2.88D-01
 IDIUse=3 WtCom= 8.16D-01 WtEn= 1.84D-01
 Coeff-Com: -0.177D+00 0.401D+00 0.361D+00 0.415D+00
 Coeff-En:   0.000D+00 0.000D+00 0.121D+00 0.879D+00
 Coeff:     -0.144D+00 0.327D+00 0.317D+00 0.501D+00
 Gap=     0.174 Goal=   None    Shift=    0.000
 RMSDP=4.09D-04 MaxDP=3.54D-02 DE=-1.88D-01 OVMax= 6.84D-02

 Cycle   5  Pass 1  IDiag  1:
 RMSU=  2.35D-04    CP:  8.45D-01  1.40D+00  5.52D-01  4.90D-01
 E= -924.564403312287     Delta-E=       -0.025375634785 Rises=F Damp=F
 DIIS: error= 5.42D-03 at cycle   5 NSaved=   5.
 NSaved= 5 IEnMin= 5 EnMin= -924.564403312287     IErMin= 5 ErrMin= 5.42D-03
 ErrMax= 5.42D-03  0.00D+00 EMaxC= 1.00D-01 BMatC= 3.57D-03 BMatP= 4.02D-02
 IDIUse=3 WtCom= 9.46D-01 WtEn= 5.42D-02
 Coeff-Com: -0.370D-01 0.880D-01 0.119D+00 0.311D+00 0.520D+00
 Coeff-En:   0.000D+00 0.000D+00 0.000D+00 0.794D-01 0.921D+00
 Coeff:     -0.350D-01 0.833D-01 0.112D+00 0.298D+00 0.541D+00
 Gap=     0.169 Goal=   None    Shift=    0.000
 RMSDP=1.51D-04 MaxDP=2.26D-02 DE=-2.54D-02 OVMax= 1.94D-02

 Cycle   6  Pass 1  IDiag  1:
 RMSU=  7.11D-05    CP:  8.50D-01  1.41D+00  5.30D-01  6.19D-01  5.61D-01
 E= -924.566652722995     Delta-E=       -0.002249410708 Rises=F Damp=F
 DIIS: error= 1.54D-03 at cycle   6 NSaved=   6.
 NSaved= 6 IEnMin= 6 EnMin= -924.566652722995     IErMin= 6 ErrMin= 1.54D-03
 ErrMax= 1.54D-03  0.00D+00 EMaxC= 1.00D-01 BMatC= 3.25D-04 BMatP= 3.57D-03
 IDIUse=3 WtCom= 9.85D-01 WtEn= 1.54D-02
 Coeff-Com:  0.801D-02-0.164D-01 0.659D-02 0.100D+00 0.347D+00 0.554D+00
 Coeff-En:   0.000D+00 0.000D+00 0.000D+00 0.000D+00 0.792D-01 0.921D+00
 Coeff:      0.789D-02-0.162D-01 0.648D-02 0.987D-01 0.343D+00 0.560D+00
 Gap=     0.170 Goal=   None    Shift=    0.000
 RMSDP=4.57D-05 MaxDP=7.27D-03 DE=-2.25D-03 OVMax= 3.13D-03

 Cycle   7  Pass 1  IDiag  1:
 RMSU=  1.82D-05    CP:  8.49D-01  1.40D+00  5.39D-01  6.05D-01  6.68D-01
                    CP:  6.19D-01
 E= -924.566890227039     Delta-E=       -0.000237504044 Rises=F Damp=F
 DIIS: error= 1.78D-04 at cycle   7 NSaved=   7.
 NSaved= 7 IEnMin= 7 EnMin= -924.566890227039     IErMin= 7 ErrMin= 1.78D-04
 ErrMax= 1.78D-04  0.00D+00 EMaxC= 1.00D-01 BMatC= 7.85D-06 BMatP= 3.25D-04
 IDIUse=3 WtCom= 9.98D-01 WtEn= 1.78D-03
 Coeff-Com:  0.483D-02-0.102D-01-0.235D-02 0.295D-01 0.125D+00 0.254D+00
 Coeff-Com:  0.599D+00
 Coeff-En:   0.000D+00 0.000D+00 0.000D+00 0.000D+00 0.000D+00 0.000D+00
 Coeff-En:   0.100D+01
 Coeff:      0.482D-02-0.102D-01-0.235D-02 0.294D-01 0.125D+00 0.253D+00
 Coeff:      0.600D+00
 Gap=     0.171 Goal=   None    Shift=    0.000
 RMSDP=9.89D-06 MaxDP=8.08D-04 DE=-2.38D-04 OVMax= 6.95D-04

 Cycle   8  Pass 1  IDiag  1:
 RMSU=  6.74D-06    CP:  8.49D-01  1.40D+00  5.38D-01  6.08D-01  6.71D-01
                    CP:  6.36D-01  6.54D-01
 E= -924.566895691538     Delta-E=       -0.000005464498 Rises=F Damp=F
 DIIS: error= 5.53D-05 at cycle   8 NSaved=   8.
 NSaved= 8 IEnMin= 8 EnMin= -924.566895691538     IErMin= 8 ErrMin= 5.53D-05
 ErrMax= 5.53D-05  0.00D+00 EMaxC= 1.00D-01 BMatC= 1.04D-06 BMatP= 7.85D-06
 IDIUse=1 WtCom= 1.00D+00 WtEn= 0.00D+00
 Coeff-Com:  0.771D-03-0.162D-02-0.108D-02 0.281D-02 0.154D-01 0.508D-01
 Coeff-Com:  0.309D+00 0.624D+00
 Coeff:      0.771D-03-0.162D-02-0.108D-02 0.281D-02 0.154D-01 0.508D-01
 Coeff:      0.309D+00 0.624D+00
 Gap=     0.171 Goal=   None    Shift=    0.000
 RMSDP=2.63D-06 MaxDP=1.31D-04 DE=-5.46D-06 OVMax= 1.71D-04

 Cycle   9  Pass 1  IDiag  1:
 RMSU=  1.67D-06    CP:  8.48D-01  1.40D+00  5.38D-01  6.09D-01  6.71D-01
                    CP:  6.39D-01  7.07D-01  7.47D-01
 E= -924.566896541191     Delta-E=       -0.000000849653 Rises=F Damp=F
 DIIS: error= 7.91D-06 at cycle   9 NSaved=   9.
 NSaved= 9 IEnMin= 9 EnMin= -924.566896541191     IErMin= 9 ErrMin= 7.91D-06
 ErrMax= 7.91D-06  0.00D+00 EMaxC= 1.00D-01 BMatC= 5.01D-08 BMatP= 1.04D-06
 IDIUse=1 WtCom= 1.00D+00 WtEn= 0.00D+00
 Coeff-Com:  0.101D-03-0.213D-03-0.403D-03-0.393D-03 0.465D-03 0.106D-01
 Coeff-Com:  0.114D+00 0.291D+00 0.585D+00
 Coeff:      0.101D-03-0.213D-03-0.403D-03-0.393D-03 0.465D-03 0.106D-01
 Coeff:      0.114D+00 0.291D+00 0.585D+00
 Gap=     0.171 Goal=   None    Shift=    0.000
 RMSDP=9.02D-07 MaxDP=1.77D-04 DE=-8.50D-07 OVMax= 6.27D-05

 Cycle  10  Pass 1  IDiag  1:
 RMSU=  4.96D-07    CP:  8.49D-01  1.40D+00  5.38D-01  6.09D-01  6.69D-01
                    CP:  6.41D-01  7.22D-01  7.30D-01  7.30D-01
 E= -924.566896574794     Delta-E=       -0.000000033604 Rises=F Damp=F
 DIIS: error= 3.62D-06 at cycle  10 NSaved=  10.
 NSaved=10 IEnMin=10 EnMin= -924.566896574794     IErMin=10 ErrMin= 3.62D-06
 ErrMax= 3.62D-06  0.00D+00 EMaxC= 1.00D-01 BMatC= 7.89D-09 BMatP= 5.01D-08
 IDIUse=1 WtCom= 1.00D+00 WtEn= 0.00D+00
 Coeff-Com: -0.354D-04 0.766D-04-0.736D-04-0.531D-03-0.129D-02 0.404D-03
 Coeff-Com:  0.267D-01 0.858D-01 0.313D+00 0.575D+00
 Coeff:     -0.354D-04 0.766D-04-0.736D-04-0.531D-03-0.129D-02 0.404D-03
 Coeff:      0.267D-01 0.858D-01 0.313D+00 0.575D+00
 Gap=     0.171 Goal=   None    Shift=    0.000
 RMSDP=2.80D-07 MaxDP=3.14D-05 DE=-3.36D-08 OVMax= 2.27D-05

 Cycle  11  Pass 1  IDiag  1:
 RMSU=  1.57D-07    CP:  8.49D-01  1.40D+00  5.38D-01  6.09D-01  6.70D-01
                    CP:  6.41D-01  7.18D-01  7.41D-01  7.39D-01  7.51D-01
 E= -924.566896581700     Delta-E=       -0.000000006906 Rises=F Damp=F
 DIIS: error= 1.10D-06 at cycle  11 NSaved=  11.
 NSaved=11 IEnMin=11 EnMin= -924.566896581700     IErMin=11 ErrMin= 1.10D-06
 ErrMax= 1.10D-06  0.00D+00 EMaxC= 1.00D-01 BMatC= 4.87D-10 BMatP= 7.89D-09
 IDIUse=1 WtCom= 1.00D+00 WtEn= 0.00D+00
 Coeff-Com: -0.142D-04 0.293D-04-0.136D-04-0.228D-03-0.503D-03-0.229D-03
 Coeff-Com:  0.415D-02 0.183D-01 0.908D-01 0.250D+00 0.637D+00
 Coeff:     -0.142D-04 0.293D-04-0.136D-04-0.228D-03-0.503D-03-0.229D-03
 Coeff:      0.415D-02 0.183D-01 0.908D-01 0.250D+00 0.637D+00
 Gap=     0.171 Goal=   None    Shift=    0.000
 RMSDP=6.77D-08 MaxDP=6.34D-06 DE=-6.91D-09 OVMax= 4.84D-06

 Cycle  12  Pass 1  IDiag  1:
 RMSU=  4.14D-08    CP:  8.49D-01  1.40D+00  5.38D-01  6.09D-01  6.70D-01
                    CP:  6.40D-01  7.19D-01  7.42D-01  7.54D-01  7.62D-01
                    CP:  8.03D-01
 E= -924.566896582073     Delta-E=       -0.000000000373 Rises=F Damp=F
 DIIS: error= 2.41D-07 at cycle  12 NSaved=  12.
 NSaved=12 IEnMin=12 EnMin= -924.566896582073     IErMin=12 ErrMin= 2.41D-07
 ErrMax= 2.41D-07  0.00D+00 EMaxC= 1.00D-01 BMatC= 6.39D-11 BMatP= 4.87D-10
 IDIUse=1 WtCom= 1.00D+00 WtEn= 0.00D+00
 Coeff-Com: -0.541D-05 0.103D-04 0.629D-05-0.621D-04-0.134D-03-0.207D-03
 Coeff-Com: -0.160D-02-0.195D-02 0.379D-02 0.526D-01 0.325D+00 0.623D+00
 Coeff:     -0.541D-05 0.103D-04 0.629D-05-0.621D-04-0.134D-03-0.207D-03
 Coeff:     -0.160D-02-0.195D-02 0.379D-02 0.526D-01 0.325D+00 0.623D+00
 Gap=     0.171 Goal=   None    Shift=    0.000
 RMSDP=2.53D-08 MaxDP=3.59D-06 DE=-3.73D-10 OVMax= 2.39D-06

 Cycle  13  Pass 1  IDiag  1:
 RMSU=  1.54D-08    CP:  8.49D-01  1.40D+00  5.38D-01  6.09D-01  6.70D-01
                    CP:  6.40D-01  7.19D-01  7.43D-01  7.53D-01  7.71D-01
                    CP:  8.56D-01  6.99D-01
 E= -924.566896582127     Delta-E=       -0.000000000054 Rises=F Damp=F
 DIIS: error= 1.34D-07 at cycle  13 NSaved=  13.
 NSaved=13 IEnMin=13 EnMin= -924.566896582127     IErMin=13 ErrMin= 1.34D-07
 ErrMax= 1.34D-07  0.00D+00 EMaxC= 1.00D-01 BMatC= 7.37D-12 BMatP= 6.39D-11
 IDIUse=1 WtCom= 1.00D+00 WtEn= 0.00D+00
[...]
 57,-0.00244471,-0.00001626,0.00000715,-0.00001312,0.00001180,0.0000138
 4,-0.00001954,0.00000773,0.00015798,-0.00001286,-0.00003084,0.00001890
 ,0.00002066,-0.00008435,-0.00002026,0.00002797,-0.00004890,-0.00009520
 ,0.00000481,-0.00025832,0.00050265,0.00015521,0.00007828,-0.00005441,0
 .00008598,-0.00018699,0.00005513,0.00002269,0.00268101,-0.00090169,-0.
 00161977,-0.00009098,-0.00000642,0.00012204,-0.00010515,0.00077664,0.0
 0030851,-0.00055401,0.00029627,0.00047346,0.00003307,0.00000902,-0.000
 03481,0.00001388,-0.00011133,-0.00011430,0.00013365,-0.00028195,0.0000
 0212,-0.02862243,-0.09146673,-0.09225756,-0.00302431,-0.00311735,-0.00
 734812,0.04073291,0.10864616,-0.00064331,0.00007338,0.00004155,0.00042
 855,-0.00009724,-0.00013081,-0.00000798,0.00008378,0.00014842,-0.00000
 486,-0.00000138,0.00000336,-0.00001611,-0.00001102,-0.00000472,-0.0000
 0060,0.00000215,0.00000029,0.00000794,-0.00000959,-0.00001206,-0.00000
 288,-0.00000213,-0.00000333,-0.00000118,0.00000070,0.00000062,0.000000
 40,-0.00000006,-0.00000016,0.00000187,0.00000377,0.00000391,0.00000434
 ,0.00001494,0.00000997,-0.00000949,-0.00001896,-0.00001363,-0.00000016
 ,0.00000193,0.00000042,0.00000184,0.00000017,0.00000026,-0.00000245,-0
 .00000158,0.00000253,-0.00000013,-0.00000003,0.00000047,-0.00001899,0.
 00001694,0.00001348,-0.00000709,0.00000307,0.00001106,0.00001418,-0.00
 001524,-0.00001380,-0.00000422,-0.00001133,-0.00001210,0.00001000,-0.0
 0000313,-0.00001025,0.00000804,-0.00000264,0.00000227,0.00000402,0.000
 00220,-0.00000131,-0.00002555,0.00000021,0.00003912,-0.00005064,0.0000
 1516,-0.00002730,0.00027211,-0.00000849,0.00015648,0.00039577,0.000795
 01,-0.00007650,-0.00002225,-0.00000270,0.00000154,0.00001146,0.0000085
 2,-0.00001393,-0.00005683,0.00003448,-0.00004210,-0.00002058,-0.000000
 24,0.00001040,-0.00003434,-0.00000633,0.00001231,-0.00003910,-0.000010
 88,-0.00002112,-0.00004364,-0.00008411,-0.00005669,0.00005514,-0.00001
 255,-0.00004831,-0.00000222,-0.00001568,-0.00002133,0.00055019,0.00052
 825,0.00116212,-0.00035392,0.00041093,0.00025451,-0.00032994,0.0002282
 9,0.00030892,-0.00016123,0.00024081,-0.00013995,0.00000559,0.00000238,
 -0.00001281,0.00004204,-0.00010118,-0.00006166,0.00001373,-0.00004628,
 0.00001966,-0.06252202,-0.09565905,-0.24519437,-0.00586481,-0.00436978
 ,-0.01209206,0.06819479,0.10387866,0.25914218,-0.00016665,-0.00044934,
 0.00002593,-0.00009102,0.00053837,0.00017072,0.00001751,-0.00005916,-0
 .00031727,0.00002106,-0.00003436,0.00003009,0.00001213,0.00003423,0.00
 005442,0.00000096,0.00000114,0.00000032,0.00002002,0.00000301,-0.00001
 089,0.00000045,0.00000014,-0.00000140,-0.00000068,0.00000054,0.0000009
 3,-0.00000063,-0.00000016,-0.00000027,-0.00000227,-0.00000256,0.000002
 18,-0.00000023,0.00000408,0.00000110,0.00001574,0.00000141,0.00000268,
 -0.00000168,0.00000144,-0.00000051,-0.00000122,-0.00000292,-0.00000006
 ,-0.00000021,-0.00000154,0.00000352,-0.00000354,0.00000145,-0.00000267
 ,-0.00003265,0.00001389,0.00001363,-0.00001343,-0.00000041,0.00001705,
 0.00002680,-0.00001512,-0.00001927,0.00000762,0.00000877,0.00002711,-0
 .00001268,0.00000390,0.00001159,-0.00000274,-0.00000028,-0.00000254,-0
 .00000101,0.00000006,-0.00000602,0.00006141,-0.00016297,0.00000146,-0.
 00007962,0.00005351,0.00001001,0.00046330,0.00009025,0.00009820,-0.001
 59085,0.00220385,0.00195004,0.00002969,0.00003958,-0.00000218,0.000010
 00,0.00000184,0.00000191,-0.00006051,0.00000110,-0.00004797,0.00002323
 ,0.00005118,-0.00001815,-0.00001236,0.00001630,0.00001074,-0.00003331,
 -0.00001514,-0.00001283,0.00017017,0.00012683,-0.00026164,-0.00012574,
 -0.00004033,-0.00019370,0.00004736,-0.00007945,-0.00001870,0.00103903,
 0.00032361,0.00023193,0.00017608,0.00023617,-0.00010531,-0.00008361,-0
 .00008663,0.00011466,-0.00023737,0.00018118,-0.00041179,0.00002683,-0.
 00003628,0.00001338,0.00008341,-0.00017444,-0.00005872,0.00001294,-0.0
 0001429,0.00002152,-0.12948354,0.09755466,-0.08012015,-0.01156507,0.01
 467409,-0.01558221,-0.00443648,0.00562093,-0.00351578,0.13464044,-0.00
 095860,0.00012102,0.00028112,0.00076460,-0.00017299,-0.00035807,0.0000
 2258,0.00006638,0.00031128,-0.00001897,0.00002035,-0.00004240,-0.00002
 094,-0.00001297,-0.00002146,-0.00000063,0.00000062,0.00000032,-0.00000
 688,-0.00000143,0.00000550,-0.00000265,-0.00000176,-0.00000116,-0.0000
 0015,-0.00000016,-0.00000036,0.00000085,0.00000024,-0.00000004,0.00000
 120,0.00000303,-0.00000067,0.00000356,0.00000485,0.00000339,-0.0000115
 5,-0.00001355,-0.00001001,0.00000065,-0.00000011,0.00000050,0.00000205
 ,0.00000284,0.00000064,-0.00000037,-0.00000104,-0.00000106,0.00000203,
 -0.00000063,0.00000187,0.00001214,-0.00000173,-0.00000414,0.00000612,0
 .00000205,-0.00000826,-0.00001275,0.00000221,0.00000897,-0.00000845,-0
 .00000288,-0.00004328,0.00001950,-0.00000753,-0.00001997,0.00000328,0.
 00000108,0.00000313,0.00000676,-0.00000003,0.00000381,-0.00004501,-0.0
 0000687,-0.00001971,0.00000042,0.00000085,-0.00009271,0.00068060,-0.00
 026097,-0.00006245,-0.00214248,0.00186722,0.00424795,-0.00003204,-0.00
 000917,-0.00000502,0.00002435,0.00002683,-0.00002236,-0.00008687,0.000
 04821,-0.00005638,-0.00002591,0.00003833,0.00000723,-0.00008160,-0.000
 01427,0.00002107,-0.00020977,-0.00007479,-0.00008135,-0.00034512,0.000
 02570,0.00023248,-0.00006286,-0.00007603,-0.00002173,-0.00009878,0.000
 07395,0.00001651,0.00102357,-0.00007076,-0.00132139,-0.00009072,0.0000
 5785,0.00019222,-0.00018172,0.00035070,0.00001108,-0.00047965,0.000347
 57,-0.00032952,0.00002203,0.00001654,-0.00000555,0.00010699,-0.0002790
 8,-0.00010502,0.00000825,-0.00011818,0.00003057,0.09122399,-0.15356785
 ,0.09156804,0.00408203,-0.00493768,0.00463746,-0.00700587,0.00980388,-
 0.00763723,-0.09582222,0.17842123,0.00026923,0.00020202,-0.00003897,-0
 .00007382,-0.00028577,-0.00000208,-0.00000923,0.00002585,0.00010676,-0
 .00000398,0.00001385,-0.00000938,-0.00000209,-0.00001388,-0.00002016,0
 .00000020,0.00000051,0.00000005,0.00000273,-0.00000257,-0.00000361,-0.
 00000015,-0.00000079,0.00000065,-0.00000026,0.00000012,0.00000029,-0.0
 0000022,-0.00000013,-0.00000007,0.00000213,0.00000118,-0.00000091,0.00
 000177,0.00000314,0.00000133,-0.00000339,-0.00000081,-0.00000611,0.000
 00003,0.00000031,0.00000012,0.,-0.00000050,-0.00000042,-0.00000033,-0.
 00000113,0.00000233,-0.00000084,-0.00000047,0.00000037,-0.00000534,0.0
 0000238,0.00000387,-0.00000258,-0.00000044,0.00000332,0.00000360,-0.00
 000190,-0.00000371,-0.00000272,-0.00000421,-0.00000935,0.00000373,0.00
 000025,-0.00000136,0.00000051,0.,0.00000058,-0.00000051,0.00000007,0.0
 0000134,0.00003664,0.00000436,-0.00004241,0.00000882,-0.00002109,0.000
 05296,-0.00029937,-0.00002537,-0.00005007,0.00092347,-0.00235289,-0.00
 043780,-0.00001370,-0.00001043,0.00000858,-0.00000887,-0.00000174,-0.0
 0000141,-0.00000873,-0.00005462,0.00002947,0.00001538,-0.00000882,0.00
 000358,0.00002168,-0.00000323,-0.00001212,0.00001224,0.00003324,-0.000
 00826,0.00023404,0.00004467,-0.00002153,-0.00001694,0.00003195,-0.0000
 6389,0.00004107,-0.00001753,-0.00006656,-0.00040934,0.00032105,0.00055
 747,-0.00005377,-0.00023954,-0.00008815,-0.00001179,-0.00017468,-0.000
 50438,0.00014847,-0.00012602,0.00008519,-0.00001174,0.00001745,0.00000
 022,-0.00002861,0.00007135,0.00004671,-0.00002642,0.00004164,-0.000007
 43,-0.07893494,0.09273965,-0.12873656,0.00838338,-0.01198303,0.0107885
 2,-0.01615132,0.01777540,-0.01527203,0.08501339,-0.10489835,0.13399870
 ,0.00921345,-0.00629546,-0.00390053,-0.00921141,0.00271696,0.00409123,
 -0.00078887,-0.00054019,-0.00162379,0.00013616,-0.00008989,0.00020934,
 0.00007079,0.00029763,0.00022358,0.00000219,0.00000440,-0.00000541,0.0
 0006021,0.00000377,-0.00004081,0.00001229,0.00001029,0.00000341,-0.000
 00004,0.00000232,0.00000401,-0.00000402,-0.00000107,-0.00000127,-0.000
 01068,-0.00002188,0.00000935,-0.00001434,-0.00000650,-0.00000819,0.000
 07700,0.00004694,0.00005406,-0.00001123,0.00000640,-0.00000692,-0.0000
 1494,-0.00002121,0.00000122,-0.00000139,-0.00000312,0.00001343,-0.0000
 1677,0.00000810,-0.00001545,-0.00013578,0.00006383,0.00003189,-0.00006
 467,0.00000671,0.00006579,0.00014182,-0.00008119,-0.00006909,0.0001193
 5,0.00015289,0.00043803,-0.00018886,0.00005276,0.00019965,-0.00001745,
 -0.00001432,-0.00002290,-0.00000173,-0.00000261,-0.00003026,-0.0011633
 7,-0.00181444,0.00111183,-0.02722422,-0.00384477,-0.00084725,-0.163796
 48,-0.00696403,-0.04348987,-0.20890522,-0.12225273,0.00576810,-0.00005
 856,0.00071537,0.00002882,0.00304277,0.00023075,-0.00236717,-0.0242422
 8,-0.00046984,-0.00819453,-0.00053900,0.00071982,-0.00009790,-0.003531
 67,0.00138526,0.00193956,-0.01997301,-0.00229203,-0.00634183,0.0003022
 6,-0.00010238,-0.00158811,-0.00013528,0.00015715,0.00051005,0.00070796
 ,0.00018085,0.00024308,-0.00262829,0.00360293,0.00218997,0.00098271,0.
 00003290,-0.00197346,0.00014458,0.00009774,-0.00033532,-0.13145699,0.0
 5829941,0.01021695,-0.01712316,0.03409704,0.00207229,0.00104364,0.0007
 4317,0.00044093,0.00647198,-0.00980282,-0.00263687,0.00317069,0.002385
 84,0.00144929,0.00056205,-0.00001618,-0.00058221,-0.00078474,-0.000703
 64,-0.00095356,-0.00037526,-0.00147473,0.00019475,0.56817786,-0.000149
 94,-0.00012355,-0.00220382,0.00050766,0.00031495,0.00059109,-0.0002299
 1,0.00000749,0.00032559,-0.00001473,-0.00000838,-0.00001786,-0.0000739
 7,0.00003594,0.00004241,-0.00000303,0.00000733,-0.00000099,0.00001168,
 -0.00001003,-0.00001393,-0.00000890,-0.00000558,-0.00000599,-0.0000035
 7,0.00000132,0.00000204,0.00000236,0.00000021,-0.00000073,0.00000661,0
 .00000594,0.00000187,0.00001452,0.00001890,0.00001110,-0.00000903,-0.0
 0002956,-0.00001748,-0.00000235,0.00000365,-0.00000209,0.00000486,-0.0
 0000155,0.00000207,-0.00000149,-0.00000751,0.00000637,-0.00000007,0.00
 000130,0.00000211,-0.00003411,0.00003799,0.00001544,-0.00001400,0.0000
 1547,0.00001336,0.00003423,-0.00004703,-0.00001630,0.00002773,0.000002
 86,-0.00003352,0.00000249,-0.00000521,-0.00000351,0.00000138,0.0000011
 9,0.00000164,0.00002068,0.00000479,0.00000414,0.00008945,-0.00153257,-
 0.00029186,0.00222057,0.00035661,0.00393769,0.01861012,-0.09960649,-0.
 00501679,-0.11655893,-0.25819700,0.00058540,0.00000599,0.00074766,0.00
 000864,0.00038731,0.00106916,0.00024604,0.02069486,0.00389111,0.003456
 21,-0.00008238,0.00001325,-0.00037511,-0.00027618,0.00066751,0.0008139
 9,-0.03609076,-0.00312466,-0.01165593,0.00101091,0.00034739,-0.0024578
 3,-0.00037136,0.00036540,0.00020513,0.00085794,-0.00011630,0.00007885,
 -0.01079494,0.00417368,0.00728558,0.00091922,0.00102566,-0.00220401,0.
 00000632,-0.00054344,-0.00027074,0.05064897,-0.19129565,-0.00804055,-0
 .00008805,0.00014472,0.00008505,0.01318623,-0.02694750,-0.00385721,0.0
 1861227,-0.03031541,-0.00076588,0.00972918,0.00232424,-0.00457125,-0.0
 0058723,-0.00030364,0.00034323,-0.00213467,-0.00325746,-0.00087955,-0.
 00221101,-0.00285608,0.00097274,0.04679720,0.69336084,-0.00328368,0.00
 064456,0.00446273,0.00202428,-0.00067530,-0.00220776,0.00066343,0.0001
 6531,0.00025674,-0.00000008,0.00001979,-0.00008886,0.00001263,-0.00012
 190,-0.00008453,0.00000044,-0.00000457,0.00000026,-0.00001081,0.000005
 84,0.00000763,0.00000154,-0.00000075,0.00000380,-0.00000030,0.00000004
 ,-0.00000089,-0.00000031,-0.00000078,0.00000115,0.00000675,0.00000533,
 -0.00000389,0.00000319,0.00000135,-0.00000030,-0.00002064,-0.00000643,
 -0.00002357,0.00000486,-0.00000328,0.00000253,0.00000267,0.00000437,-0
 .00000560,-0.00000119,0.00000176,-0.00000060,0.00000430,-0.00000445,0.
 00000511,0.00004192,-0.00002386,-0.00000072,0.00001759,-0.00000691,-0.
 00001086,-0.00004251,0.00003375,0.00000853,-0.00008426,-0.00006590,-0.
 00026830,0.00010075,-0.00002470,-0.00006356,0.00000015,-0.00000793,0.0
 0001731,-0.00001415,0.00001237,0.00001322,0.00157384,0.00146441,-0.001
 17777,0.01941510,0.00240975,0.01180119,-0.02309506,-0.00420270,-0.0708
 6174,0.01759126,-0.00933614,-0.02674547,0.00027917,-0.00050800,0.00002
 677,-0.00049200,-0.00001664,0.00394589,-0.02489977,-0.00336867,-0.0031
 7776,0.00007868,-0.00067862,-0.00012532,0.00332123,-0.00064702,-0.0015
 8665,-0.01433395,-0.00045086,-0.00400198,-0.00081522,0.00111641,0.0011
 2446,0.00024349,-0.00025442,0.00036780,-0.00075267,0.00001179,0.000067
 43,-0.00181079,-0.00227100,-0.00403187,-0.00084621,0.00128421,0.000702
 20,0.00032228,-0.00033049,0.00047292,-0.00038998,-0.00398181,-0.062348
 58,-0.00289703,0.00565300,-0.00081326,0.01261683,-0.02583675,0.0072102
 3,-0.01282167,0.01990672,0.00665713,0.00173336,-0.00292710,0.00720393,
 0.00005809,0.00033449,-0.00015422,0.00105957,0.00186076,0.00024690,-0.
 00030941,-0.00044230,-0.00047514,0.03848132,0.00861319,0.13603900,0.01
 176045,0.00378526,-0.00103721,-0.01113593,0.00002462,0.00330284,-0.000
 16541,-0.00059870,-0.00221810,0.00013570,-0.00003385,0.00027510,0.0001
 9582,0.00008721,0.00007095,0.00000568,0.00000015,-0.00000276,0.0000491
 0,0.00001006,-0.00004603,0.00001817,0.00001586,0.00000544,0.00000190,0
 .00000183,0.00000253,-0.00000545,-0.00000104,-0.00000147,-0.00002342,-
 0.00003115,0.00001196,-0.00002866,-0.00002296,-0.00001596,0.00009809,0
 .00007691,0.00008323,-0.00001040,0.00000443,-0.00000607,-0.00001766,-0
 .00002186,0.00000157,0.00000300,0.00000416,0.00000513,-0.00001965,0.00
 001066,-0.00002026,-0.00012676,0.00004514,0.00002283,-0.00006338,-0.00
 000383,0.00006421,0.00013911,-0.00005947,-0.00006635,0.00007674,0.0000
 2087,0.00032309,-0.00016202,0.00008256,0.00020715,-0.00005096,-0.00000
 747,-0.00002486,-0.00005729,0.00001460,-0.00002575,-0.00188063,0.00229
 360,-0.00080433,0.00105200,0.00047043,0.00116476,-0.00160641,-0.003424
 14,-0.00196386,-0.15900545,0.09713687,0.05656618,-0.00060260,-0.000836
 99,0.00021510,-0.00029498,-0.00017323,-0.00019066,0.00183250,0.0004316
 6,0.00111802,-0.00026706,-0.00069969,0.00007245,0.00062839,-0.00028397
 ,-0.00047101,0.00011295,-0.00030154,0.00040326,-0.02727554,0.00881349,
 0.01822572,0.00399898,-0.00050013,0.00237474,-0.00513688,-0.00064325,-
 0.00028088,-0.12751017,0.01021870,0.06577386,-0.01102509,0.00136724,0.
 01189571,-0.00540730,0.00240419,0.00522169,0.00054739,-0.00310275,0.00
 075590,0.00074651,0.00001397,0.00031923,-0.00036193,0.00097938,0.00109
 829,0.00019074,0.00065502,-0.00026022,-0.13916212,-0.06126311,0.021159
 75,-0.01785717,-0.02658148,0.00488384,-0.00645576,-0.01335064,0.004693
 89,0.01150818,0.01120973,0.00076373,0.01797993,-0.01467015,-0.01273703
 ,0.46463473,-0.00258127,-0.00054910,-0.00169837,0.00219387,0.00026249,
 0.00016042,-0.00034760,-0.00007743,0.00026039,-0.00004321,0.00000693,-
 0.00000040,-0.00004321,0.00010672,0.00010851,-0.00000360,0.00000751,0.
 00000062,0.00001478,-0.00001972,-0.00000746,-0.00001270,-0.00000798,-0
 .00000985,-0.00000364,0.00000107,0.00000146,0.00000358,0.00000102,-0.0
 0000089,0.00000408,0.00000797,0.00000285,0.00001096,0.00002049,0.00001
 060,-0.00001036,-0.00003424,-0.00001951,-0.00000205,0.00000359,-0.0000
 0129,0.00000704,0.00000389,0.00000359,-0.00000184,-0.00000844,0.000001
 61,0.00000301,0.00000211,0.00000289,-0.00002327,0.00003650,0.00001556,
 -0.00000716,0.00001727,0.00000572,0.00002176,-0.00004487,-0.00000874,0
 .00002029,0.00008705,0.00012096,-0.00001845,-0.00001277,-0.00002728,0.
 00002027,0.00000078,-0.00000838,0.00005318,-0.00000483,-0.00000762,-0.
 00016158,-0.00182633,-0.00008658,-0.00188088,0.00050706,-0.00203508,0.
 01379880,0.00295791,0.00208939,0.09429392,-0.29408512,-0.05038355,0.00
 001573,0.00012962,-0.00042123,0.00050799,0.00034574,0.00009247,-0.0017
 1584,0.00124775,-0.00178444,0.00014792,0.00083891,-0.00002079,-0.00084
 377,0.00004888,0.00046857,-0.00026019,-0.00047241,-0.00030102,0.003547
 03,-0.00072577,0.00191417,-0.00079868,0.00129777,0.00004303,0.00141672
 ,0.00067624,0.00070276,-0.01326868,-0.09935433,-0.00660892,-0.01533470
 ,0.00655340,0.00995914,0.02931608,-0.00838337,-0.02618256,-0.01051187,
 0.00415713,-0.00014686,0.00052608,-0.00039560,0.00000692,0.00123264,-0
 .00358593,-0.00181570,0.00197158,-0.00329968,0.00006168,-0.05525415,-0
 .17518957,0.01483865,0.00285746,0.00446802,-0.00088247,-0.01670654,-0.
 02395308,0.00266266,-0.02257888,-0.02881502,0.00792678,0.00399656,-0.0
 9061195,0.01265010,-0.01356719,0.70766376,0.00036732,-0.00198937,0.002
 72223,0.00044602,0.00035556,-0.00115503,0.00033715,-0.00003047,-0.0002
 6291,0.00004593,-0.00000953,-0.00001902,-0.00001161,-0.00000544,0.0000
 1598,0.00000079,-0.00000118,0.00000014,0.00001346,-0.00000885,-0.00000
 776,0.00000150,-0.00000040,0.00000050,-0.00000042,0.00000016,0.0000003
 7,-0.00000022,-0.00000044,0.00000027,0.00000253,0.00000282,0.00000066,
 -0.00000198,0.00000013,-0.00000497,0.00001254,0.00000724,0.00000422,0.
 00000012,-0.00000120,0.00000008,-0.00000160,0.00000189,-0.00000064,0.0
 0000094,-0.00000205,-0.00000158,0.00000120,-0.00000088,0.00000082,0.00
 000146,-0.00000322,0.00000932,0.00000103,-0.00000369,0.00000645,-0.000
 00383,0.00000809,-0.00000876,-0.00004412,-0.00001136,-0.00004581,0.000
 02467,-0.00001198,-0.00001121,0.00000463,-0.00000699,0.00000225,-0.000
 00645,-0.00000120,-0.00000174,-0.00107858,0.00081238,-0.00021888,0.000
 82452,0.00081240,0.00010580,0.00096479,-0.00097613,-0.00339497,0.04343
 933,-0.05892408,-0.04580027,0.00001165,-0.00035515,-0.00017913,0.00004
 367,-0.00016673,0.00054766,0.00056072,0.00109676,-0.00019922,-0.000235
 64,-0.00016314,0.00013184,0.00044122,0.00002460,-0.00000813,-0.0002140
 8,-0.00020865,0.00043407,-0.00245091,0.00140123,0.01233599,0.00021917,
 0.00017536,0.00271867,-0.00182547,0.00017937,-0.00000258,0.04585986,-0
 .01327672,-0.11000391,0.02676638,-0.00752684,-0.01844966,0.01601227,-0
 .00395517,-0.01342548,0.00030450,-0.00159521,0.00758548,-0.00039085,0.
 00036943,-0.00024759,-0.00048448,0.00155208,0.00013407,0.00006910,-0.0
 0092205,-0.00045370,0.03236888,0.01965945,-0.07139192,0.01098878,0.017
 09446,-0.00443079,-0.01080822,-0.02082158,0.01168961,0.01319094,0.0140
 2677,0.00019147,0.00514075,0.01505196,-0.00238570,-0.18090933,0.038347
 53,0.23347341\\-0.00001267,0.00000187,-0.00000593,0.00001547,-0.000005
 18,-0.00000099,0.00000090,0.00000207,0.00000438,0.00000071,0.00000060,
 -0.00000112,-0.00000045,0.00000095,0.00000080,0.00000194,-0.00000285,0
 .00000135,-0.00000183,-0.00000393,0.00000242,-0.00000152,-0.00000528,0
 .00000128,-0.00000087,-0.00000310,0.00000029,-0.00000012,-0.00000436,0
 .00000168,-0.00000118,0.00000207,0.00000081,0.00000224,-0.00000318,0.0
 0000221,-0.00000001,-0.00000491,-0.00000247,-0.00000125,-0.00000388,0.
 00000056,-0.00000126,-0.00000177,-0.00000074,-0.00000028,-0.00000357,0
 .00000116,-0.00000012,-0.00000420,0.00000176,0.00000224,0.00000306,0.0
 0000458,-0.00000061,-0.00000168,0.00000538,-0.00000114,-0.00001125,-0.
 00000531,0.00000173,-0.00000055,0.00000009,0.00000011,0.00000055,-0.00
 000035,0.00000132,-0.00000165,-0.00000015,-0.00000084,-0.00000121,0.00
 000192,-0.00000137,0.00000465,-0.00000288,-0.00000039,-0.00000223,-0.0
 0000105,0.00000219,0.00000383,0.00000216,-0.00000360,0.00000401,0.0000
 1497,-0.00000027,0.00000312,-0.00000087,-0.00000136,0.00000280,-0.0000
 0145,-0.00000024,0.00000238,-0.00000137,0.00000029,0.00000270,-0.00000
 074,-0.00000122,0.00000351,-0.00000155,-0.00000045,0.00000292,-0.00000
 290,0.00000165,0.00000208,0.,0.00000050,0.00000351,-0.00000016,0.00000
 126,0.00000270,-0.00000058,-0.00000126,0.00000306,-0.00000007,0.000000
 29,0.00000160,-0.00000073,0.00000158,0.00000156,-0.00000046,-0.0000024
 3,0.00000345,0.00000015,-0.00000137,-0.00000021,-0.00000101,-0.0000021
 0,0.00000060,-0.00000151,-0.00000139,-0.00000002,-0.00000096,0.0000033
 6,-0.00000025,0.00000515,-0.00000080,0.00000147,-0.00000217,0.00000263
 ,-0.00000065,0.00000137,0.00000190,0.00000132,0.00000206,0.00000408,0.
 00000324,-0.00001454,-0.00000396,0.00000024,-0.00000447\\\@


 ... IT IS NO ONE DREAME THAT
     CAN PLEASE THESE ALL ...

                -- BEN JONSON
 Job cpu time:       3 days  8 hours 35 minutes 37.1 seconds.
 File lengths (MBytes):  RWF=   3110 Int=      0 D2E=      0 Chk=     42 Scr=      1
 Normal termination of Gaussian 09 at Mon Nov 22 06:00:05 2021.
