 Entering Gaussian System, Link 0=g09
 Input=NHC12.gjf
 Output=NHC12.log
 Initial command:
 /usr/local/gqt/g09/l1.exe "/usr/local/gqt/lixogaussian/Gau-8394.inp" -scrdir="/usr/local/gqt/lixogaussian/"
 Entering Link 1 = /usr/local/gqt/g09/l1.exe PID=      8396.
  
 Copyright (c) 1988,1990,1992,1993,1995,1998,2003,2009,2013,
            Gaussian, Inc.  All Rights Reserved.
  
 This is part of the Gaussian(R) 09 program.  It is based on
 the Gaussian(R) 03 system (copyright 2003, Gaussian, Inc.),
 the Gaussian(R) 98 system (copyright 1998, Gaussian, Inc.),
 the Gaussian(R) 94 system (copyright 1995, Gaussian, Inc.),
 the Gaussian 92(TM) system (copyright 1992, Gaussian, Inc.),
 the Gaussian 90(TM) system (copyright 1990, Gaussian, Inc.),
 the Gaussian 88(TM) system (copyright 1988, Gaussian, Inc.),
 the Gaussian 86(TM) system (copyright 1986, Carnegie Mellon
 University), and the Gaussian 82(TM) system (copyright 1983,
 Carnegie Mellon University). Gaussian is a federally registered
 trademark of Gaussian, Inc.
  
 This software contains proprietary and confidential information,
 including trade secrets, belonging to Gaussian, Inc.
  
 This software is provided under written license and may be
 used, copied, transmitted, or stored only in accord with that
 written license.
  
 The following legend is applicable only to US Government
 contracts under FAR:
  
                    RESTRICTED RIGHTS LEGEND
  
 Use, reproduction and disclosure by the US Government is
 subject to restrictions as set forth in subparagraphs (a)
 and (c) of the Commercial Computer Software - Restricted
 Rights clause in FAR 52.227-19.
  
 Gaussian, Inc.
 340 Quinnipiac St., Bldg. 40, Wallingford CT 06492
  
  
 ---------------------------------------------------------------
 Warning -- This program may not be used in any manner that
 competes with the business of Gaussian, Inc. or will provide
 assistance to any competitor of Gaussian, Inc.  The licensee
 of this program is prohibited from giving any competitor of
 Gaussian, Inc. access to this program.  By using this program,
 the user acknowledges that Gaussian, Inc. is engaged in the
 business of creating and licensing software in the field of
 computational chemistry and represents and warrants to the
 licensee that it is not a competitor of Gaussian, Inc. and that
 it will not use this program in any manner prohibited above.
 ---------------------------------------------------------------
  

 Cite this work as:
 Gaussian 09, Revision D.01,
 M. J. Frisch, G. W. Trucks, H. B. Schlegel, G. E. Scuseria, 
 M. A. Robb, J. R. Cheeseman, G. Scalmani, V. Barone, B. Mennucci, 
 G. A. Petersson, H. Nakatsuji, M. Caricato, X. Li, H. P. Hratchian, 
 A. F. Izmaylov, J. Bloino, G. Zheng, J. L. Sonnenberg, M. Hada, 
 M. Ehara, K. Toyota, R. Fukuda, J. Hasegawa, M. Ishida, T. Nakajima, 
 Y. Honda, O. Kitao, H. Nakai, T. Vreven, J. A. Montgomery, Jr., 
 J. E. Peralta, F. Ogliaro, M. Bearpark, J. J. Heyd, E. Brothers, 
 K. N. Kudin, V. N. Staroverov, T. Keith, R. Kobayashi, J. Normand, 
 K. Raghavachari, A. Rendell, J. C. Burant, S. S. Iyengar, J. Tomasi, 
 M. Cossi, N. Rega, J. M. Millam, M. Klene, J. E. Knox, J. B. Cross, 
 V. Bakken, C. Adamo, J. Jaramillo, R. Gomperts, R. E. Stratmann, 
 O. Yazyev, A. J. Austin, R. Cammi, C. Pomelli, J. W. Ochterski, 
 R. L. Martin, K. Morokuma, V. G. Zakrzewski, G. A. Voth, 
 P. Salvador, J. J. Dannenberg, S. Dapprich, A. D. Daniels, 
 O. Farkas, J. B. Foresman, J. V. Ortiz, J. Cioslowski, 
 and D. J. Fox, Gaussian, Inc., Wallingford CT, 2013.
 
 ******************************************
 Gaussian 09:  ES64L-G09RevD.01 24-Apr-2013
                 2-Jun-2021 
 ******************************************
 %nprocshared=16
 Will use up to   16 processors via shared memory.
 %mem=25GB
 %chk=NHC12.chk
 ----------------------------------------------------------
 #p opt freq n12sx/6-311+g(d,p) scrf=(iefpcm,solvent=water)
 ----------------------------------------------------------
 1/14=-1,18=20,19=15,26=3,38=1/1,3;
 2/9=110,12=2,17=6,18=5,40=1/2;
 3/5=4,6=6,7=111,11=2,16=1,25=1,30=1,70=2201,71=1,72=1,74=-69/1,2,3;
 4//1;
 5/5=2,38=5,53=1/2;
 6/7=2,8=2,9=2,10=2,28=1/1;
 7//1,2,3,16;
 1/14=-1,18=20,19=15,26=3/3(2);
 2/9=110/2;
 99//99;
 2/9=110/2;
 3/5=4,6=6,7=111,11=2,16=1,25=1,30=1,70=2205,71=1,72=1,74=-69/1,2,3;
 4/5=5,16=3,69=1/1;
 5/5=2,38=5,53=1/2;
 7//1,2,3,16;
 1/14=-1,18=20,19=15,26=3/3(-5);
 2/9=110/2;
 6/7=2,8=2,9=2,10=2,19=2,28=1/1;
 99/9=1/99;
 Leave Link    1 at Wed Jun  2 07:26:48 2021, MaxMem=  3355443200 cpu:         0.8
 (Enter /usr/local/gqt/g09/l101.exe)
 -----
 TITLE
 -----
 Symbolic Z-matrix:
 Charge =  0 Multiplicity = 1
 N                    0    -0.3885    1.33641  -0.00009 
 C                    0    -1.6485    1.33641  -0.00009 
 N                    0    -2.10219   0.1545   -0.00009 
 C                    0    -1.3311   -0.65053  -0.00009 
 N                    0    -0.06142   0.02457  -0.00009 
 C                    0    -2.49641   2.57013  -0.00009 
 C                    0    -3.54328  -0.13564  -0.00009 
 C                    0    -4.32502   1.17143  -0.00009 
 C                    0    -3.89866  -0.93887   1.24411 
 C                    0    -3.89901  -0.93966  -1.24369 
 C                    0     1.25226  -0.56031  -0.00009 
 C                    0     1.13277  -2.07862  -0.00009 
 C                    0     2.00711  -0.11122   1.24411 
 C                    0     2.00786  -0.11078  -1.24369 
 H                    0    -1.8422    3.47057  -0.00009 
 H                    0    -3.13824   2.57853  -0.90935 
 H                    0    -3.13888   2.57854   0.90872 
 H                    0    -4.06601   1.75924  -0.90903 
 H                    0    -5.4159    0.95064  -0.00009 
 H                    0    -4.06456   1.75929   0.90839 
 H                    0    -3.32785  -1.89435   1.24509 
 H                    0    -4.98966  -1.1591    1.24379 
 H                    0    -3.63832  -0.35045   2.15227 
 H                    0    -4.64355  -0.37656  -1.84978 
 H                    0    -2.98112  -1.1104   -1.84957 
 H                    0    -4.33213  -1.91913  -0.94067 
 H                    0     0.58123  -2.40789  -0.90903 
 H                    0     2.15     -2.53028  -0.00009 
 H                    0     0.58002  -2.40709   0.90839 
 H                    0     2.095     0.9983    1.24509 
 H                    0     3.02412  -0.56341   1.24379 
 H                    0     1.45413  -0.44021   2.15227 
 H                    0     2.28881  -1.001    -1.84978 
 H                    0     1.35836   0.55992  -1.84957 
 H                    0     2.92813   0.43699  -0.94067 
 
 NAtoms=     35 NQM=       35 NQMF=       0 NMMI=      0 NMMIF=      0
                NMic=       0 NMicF=      0.
                    Isotopes and Nuclear Properties:
 (Nuclear quadrupole moments (NQMom) in fm**2, nuclear magnetic moments (NMagM)
  in nuclear magnetons)

  Atom         1           2           3           4           5           6           7           8           9          10
 IAtWgt=          14          12          14          12          14          12          12          12          12          12
 AtmWgt=  14.0030740  12.0000000  14.0030740  12.0000000  14.0030740  12.0000000  12.0000000  12.0000000  12.0000000  12.0000000
 NucSpn=           2           0           2           0           2           0           0           0           0           0
 AtZEff=   0.0000000   0.0000000   0.0000000   0.0000000   0.0000000   0.0000000   0.0000000   0.0000000   0.0000000   0.0000000
 NQMom=    2.0440000   0.0000000   2.0440000   0.0000000   2.0440000   0.0000000   0.0000000   0.0000000   0.0000000   0.0000000
 NMagM=    0.4037610   0.0000000   0.4037610   0.0000000   0.4037610   0.0000000   0.0000000   0.0000000   0.0000000   0.0000000
 AtZNuc=   7.0000000   6.0000000   7.0000000   6.0000000   7.0000000   6.0000000   6.0000000   6.0000000   6.0000000   6.0000000

  Atom        11          12          13          14          15          16          17          18          19          20
 IAtWgt=          12          12          12          12           1           1           1           1           1           1
 AtmWgt=  12.0000000  12.0000000  12.0000000  12.0000000   1.0078250   1.0078250   1.0078250   1.0078250   1.0078250   1.0078250
 NucSpn=           0           0           0           0           1           1           1           1           1           1
 AtZEff=   0.0000000   0.0000000   0.0000000   0.0000000   0.0000000   0.0000000   0.0000000   0.0000000   0.0000000   0.0000000
 NQMom=    0.0000000   0.0000000   0.0000000   0.0000000   0.0000000   0.0000000   0.0000000   0.0000000   0.0000000   0.0000000
 NMagM=    0.0000000   0.0000000   0.0000000   0.0000000   2.7928460   2.7928460   2.7928460   2.7928460   2.7928460   2.7928460
 AtZNuc=   6.0000000   6.0000000   6.0000000   6.0000000   1.0000000   1.0000000   1.0000000   1.0000000   1.0000000   1.0000000

  Atom        21          22          23          24          25          26          27          28          29          30
 IAtWgt=           1           1           1           1           1           1           1           1           1           1
 AtmWgt=   1.0078250   1.0078250   1.0078250   1.0078250   1.0078250   1.0078250   1.0078250   1.0078250   1.0078250   1.0078250
 NucSpn=           1           1           1           1           1           1           1           1           1           1
 AtZEff=   0.0000000   0.0000000   0.0000000   0.0000000   0.0000000   0.0000000   0.0000000   0.0000000   0.0000000   0.0000000
 NQMom=    0.0000000   0.0000000   0.0000000   0.0000000   0.0000000   0.0000000   0.0000000   0.0000000   0.0000000   0.0000000
 NMagM=    2.7928460   2.7928460   2.7928460   2.7928460   2.7928460   2.7928460   2.7928460   2.7928460   2.7928460   2.7928460
 AtZNuc=   1.0000000   1.0000000   1.0000000   1.0000000   1.0000000   1.0000000   1.0000000   1.0000000   1.0000000   1.0000000

  Atom        31          32          33          34          35
 IAtWgt=           1           1           1           1           1
 AtmWgt=   1.0078250   1.0078250   1.0078250   1.0078250   1.0078250
 NucSpn=           1           1           1           1           1
 AtZEff=   0.0000000   0.0000000   0.0000000   0.0000000   0.0000000
 NQMom=    0.0000000   0.0000000   0.0000000   0.0000000   0.0000000
 NMagM=    2.7928460   2.7928460   2.7928460   2.7928460   2.7928460
 AtZNuc=   1.0000000   1.0000000   1.0000000   1.0000000   1.0000000
 Leave Link  101 at Wed Jun  2 07:26:48 2021, MaxMem=  3355443200 cpu:         6.9
 (Enter /usr/local/gqt/g09/l103.exe)

 GradGradGradGradGradGradGradGradGradGradGradGradGradGradGradGradGradGrad
 Berny optimization.
 Initialization pass.
                           ----------------------------
                           !    Initial Parameters    !
                           ! (Angstroms and Degrees)  !
 --------------------------                            --------------------------
 ! Name  Definition              Value          Derivative Info.                !
 --------------------------------------------------------------------------------
 ! R1    R(1,2)                  1.26           estimate D2E/DX2                !
 ! R2    R(1,5)                  1.352          estimate D2E/DX2                !
 ! R3    R(2,3)                  1.266          estimate D2E/DX2                !
 ! R4    R(2,6)                  1.497          estimate D2E/DX2                !
 ! R5    R(3,4)                  1.1147         estimate D2E/DX2                !
 ! R6    R(3,7)                  1.47           estimate D2E/DX2                !
 ! R7    R(4,5)                  1.438          estimate D2E/DX2                !
 ! R8    R(5,11)                 1.438          estimate D2E/DX2                !
 ! R9    R(6,15)                 1.113          estimate D2E/DX2                !
 ! R10   R(6,16)                 1.113          estimate D2E/DX2                !
 ! R11   R(6,17)                 1.113          estimate D2E/DX2                !
 ! R12   R(7,8)                  1.523          estimate D2E/DX2                !
 ! R13   R(7,9)                  1.523          estimate D2E/DX2                !
 ! R14   R(7,10)                 1.523          estimate D2E/DX2                !
 ! R15   R(8,18)                 1.113          estimate D2E/DX2                !
 ! R16   R(8,19)                 1.113          estimate D2E/DX2                !
 ! R17   R(8,20)                 1.113          estimate D2E/DX2                !
 ! R18   R(9,21)                 1.113          estimate D2E/DX2                !
 ! R19   R(9,22)                 1.113          estimate D2E/DX2                !
 ! R20   R(9,23)                 1.113          estimate D2E/DX2                !
 ! R21   R(10,24)                1.113          estimate D2E/DX2                !
 ! R22   R(10,25)                1.113          estimate D2E/DX2                !
 ! R23   R(10,26)                1.113          estimate D2E/DX2                !
 ! R24   R(11,12)                1.523          estimate D2E/DX2                !
 ! R25   R(11,13)                1.523          estimate D2E/DX2                !
 ! R26   R(11,14)                1.523          estimate D2E/DX2                !
 ! R27   R(12,27)                1.113          estimate D2E/DX2                !
 ! R28   R(12,28)                1.113          estimate D2E/DX2                !
 ! R29   R(12,29)                1.113          estimate D2E/DX2                !
 ! R30   R(13,30)                1.113          estimate D2E/DX2                !
 ! R31   R(13,31)                1.113          estimate D2E/DX2                !
 ! R32   R(13,32)                1.113          estimate D2E/DX2                !
 ! R33   R(14,33)                1.113          estimate D2E/DX2                !
 ! R34   R(14,34)                1.113          estimate D2E/DX2                !
 ! R35   R(14,35)                1.113          estimate D2E/DX2                !
 ! A1    A(2,1,5)              104.0            estimate D2E/DX2                !
 ! A2    A(1,2,3)              111.0            estimate D2E/DX2                !
 ! A3    A(1,2,6)              124.5            estimate D2E/DX2                !
 ! A4    A(3,2,6)              124.5            estimate D2E/DX2                !
 ! A5    A(2,3,4)              115.2334         estimate D2E/DX2                !
 ! A6    A(2,3,7)              122.3833         estimate D2E/DX2                !
 ! A7    A(4,3,7)              122.3833         estimate D2E/DX2                !
 ! A8    A(3,4,5)              105.7666         estimate D2E/DX2                !
 ! A9    A(1,5,4)              104.0            estimate D2E/DX2                !
 ! A10   A(1,5,11)             128.0            estimate D2E/DX2                !
 ! A11   A(4,5,11)             128.0            estimate D2E/DX2                !
 ! A12   A(2,6,15)             109.5            estimate D2E/DX2                !
 ! A13   A(2,6,16)             109.4418         estimate D2E/DX2                !
 ! A14   A(2,6,17)             109.4618         estimate D2E/DX2                !
 ! A15   A(15,6,16)            109.4418         estimate D2E/DX2                !
 ! A16   A(15,6,17)            109.4619         estimate D2E/DX2                !
 ! A17   A(16,6,17)            109.52           estimate D2E/DX2                !
 ! A18   A(3,7,8)              109.5            estimate D2E/DX2                !
 ! A19   A(3,7,9)              109.4418         estimate D2E/DX2                !
 ! A20   A(3,7,10)             109.4618         estimate D2E/DX2                !
 ! A21   A(8,7,9)              109.4418         estimate D2E/DX2                !
 ! A22   A(8,7,10)             109.4618         estimate D2E/DX2                !
 ! A23   A(9,7,10)             109.52           estimate D2E/DX2                !
 ! A24   A(7,8,18)             109.5            estimate D2E/DX2                !
 ! A25   A(7,8,19)             109.4419         estimate D2E/DX2                !
 ! A26   A(7,8,20)             109.4618         estimate D2E/DX2                !
 ! A27   A(18,8,19)            109.4418         estimate D2E/DX2                !
 ! A28   A(18,8,20)            109.4618         estimate D2E/DX2                !
 ! A29   A(19,8,20)            109.52           estimate D2E/DX2                !
 ! A30   A(7,9,21)             109.5            estimate D2E/DX2                !
 ! A31   A(7,9,22)             109.4419         estimate D2E/DX2                !
 ! A32   A(7,9,23)             109.4618         estimate D2E/DX2                !
 ! A33   A(21,9,22)            109.4419         estimate D2E/DX2                !
 ! A34   A(21,9,23)            109.4619         estimate D2E/DX2                !
 ! A35   A(22,9,23)            109.52           estimate D2E/DX2                !
 ! A36   A(7,10,24)            109.5            estimate D2E/DX2                !
 ! A37   A(7,10,25)            109.4418         estimate D2E/DX2                !
 ! A38   A(7,10,26)            109.4618         estimate D2E/DX2                !
 ! A39   A(24,10,25)           109.4418         estimate D2E/DX2                !
 ! A40   A(24,10,26)           109.4618         estimate D2E/DX2                !
 ! A41   A(25,10,26)           109.52           estimate D2E/DX2                !
 ! A42   A(5,11,12)            109.5            estimate D2E/DX2                !
 ! A43   A(5,11,13)            109.4419         estimate D2E/DX2                !
 ! A44   A(5,11,14)            109.4619         estimate D2E/DX2                !
 ! A45   A(12,11,13)           109.4418         estimate D2E/DX2                !
 ! A46   A(12,11,14)           109.4618         estimate D2E/DX2                !
 ! A47   A(13,11,14)           109.52           estimate D2E/DX2                !
 ! A48   A(11,12,27)           109.5            estimate D2E/DX2                !
 ! A49   A(11,12,28)           109.4419         estimate D2E/DX2                !
 ! A50   A(11,12,29)           109.4619         estimate D2E/DX2                !
 ! A51   A(27,12,28)           109.4418         estimate D2E/DX2                !
 ! A52   A(27,12,29)           109.4618         estimate D2E/DX2                !
 ! A53   A(28,12,29)           109.52           estimate D2E/DX2                !
 ! A54   A(11,13,30)           109.5            estimate D2E/DX2                !
 ! A55   A(11,13,31)           109.4419         estimate D2E/DX2                !
 ! A56   A(11,13,32)           109.4618         estimate D2E/DX2                !
 ! A57   A(30,13,31)           109.4418         estimate D2E/DX2                !
 ! A58   A(30,13,32)           109.4618         estimate D2E/DX2                !
 ! A59   A(31,13,32)           109.52           estimate D2E/DX2                !
 ! A60   A(11,14,33)           109.5            estimate D2E/DX2                !
 ! A61   A(11,14,34)           109.4418         estimate D2E/DX2                !
 ! A62   A(11,14,35)           109.4618         estimate D2E/DX2                !
 ! A63   A(33,14,34)           109.4418         estimate D2E/DX2                !
 ! A64   A(33,14,35)           109.4619         estimate D2E/DX2                !
 ! A65   A(34,14,35)           109.52           estimate D2E/DX2                !
 ! D1    D(5,1,2,3)              0.0            estimate D2E/DX2                !
 ! D2    D(5,1,2,6)            180.0            estimate D2E/DX2                !
 ! D3    D(2,1,5,4)              0.0            estimate D2E/DX2                !
 ! D4    D(2,1,5,11)           180.0            estimate D2E/DX2                !
 ! D5    D(1,2,3,4)              0.0            estimate D2E/DX2                !
 ! D6    D(1,2,3,7)            180.0            estimate D2E/DX2                !
 ! D7    D(6,2,3,4)            180.0            estimate D2E/DX2                !
 ! D8    D(6,2,3,7)              0.0            estimate D2E/DX2                !
 ! D9    D(1,2,6,15)             0.0            estimate D2E/DX2                !
 ! D10   D(1,2,6,16)           119.9636         estimate D2E/DX2                !
 ! D11   D(1,2,6,17)          -120.0004         estimate D2E/DX2                !
 ! D12   D(3,2,6,15)           180.0            estimate D2E/DX2                !
 ! D13   D(3,2,6,16)           -60.0364         estimate D2E/DX2                !
 ! D14   D(3,2,6,17)            59.9996         estimate D2E/DX2                !
 ! D15   D(2,3,4,5)              0.0            estimate D2E/DX2                !
 ! D16   D(7,3,4,5)            180.0            estimate D2E/DX2                !
 ! D17   D(2,3,7,8)              0.0            estimate D2E/DX2                !
 ! D18   D(2,3,7,9)           -119.9637         estimate D2E/DX2                !
 ! D19   D(2,3,7,10)           120.0004         estimate D2E/DX2                !
 ! D20   D(4,3,7,8)            180.0            estimate D2E/DX2                !
 ! D21   D(4,3,7,9)             60.0363         estimate D2E/DX2                !
 ! D22   D(4,3,7,10)           -59.9996         estimate D2E/DX2                !
 ! D23   D(3,4,5,1)              0.0            estimate D2E/DX2                !
 ! D24   D(3,4,5,11)           180.0            estimate D2E/DX2                !
 ! D25   D(1,5,11,12)          180.0            estimate D2E/DX2                !
 ! D26   D(1,5,11,13)           60.0364         estimate D2E/DX2                !
 ! D27   D(1,5,11,14)          -59.9996         estimate D2E/DX2                !
 ! D28   D(4,5,11,12)            0.0            estimate D2E/DX2                !
 ! D29   D(4,5,11,13)         -119.9636         estimate D2E/DX2                !
 ! D30   D(4,5,11,14)          120.0004         estimate D2E/DX2                !
 ! D31   D(3,7,8,18)            60.0364         estimate D2E/DX2                !
 ! D32   D(3,7,8,19)           180.0            estimate D2E/DX2                !
 ! D33   D(3,7,8,20)           -59.964          estimate D2E/DX2                !
 ! D34   D(9,7,8,18)          -179.9999         estimate D2E/DX2                !
 ! D35   D(9,7,8,19)           -60.0363         estimate D2E/DX2                !
 ! D36   D(9,7,8,20)            59.9997         estimate D2E/DX2                !
 ! D37   D(10,7,8,18)          -59.964          estimate D2E/DX2                !
 ! D38   D(10,7,8,19)           59.9996         estimate D2E/DX2                !
 ! D39   D(10,7,8,20)         -179.9644         estimate D2E/DX2                !
 ! D40   D(3,7,9,21)           -60.0007         estimate D2E/DX2                !
 ! D41   D(3,7,9,22)          -179.9644         estimate D2E/DX2                !
 ! D42   D(3,7,9,23)            59.9997         estimate D2E/DX2                !
 ! D43   D(8,7,9,21)           180.0            estimate D2E/DX2                !
 ! D44   D(8,7,9,22)            60.0363         estimate D2E/DX2                !
 ! D45   D(8,7,9,23)           -59.9996         estimate D2E/DX2                !
 ! D46   D(10,7,9,21)           59.9997         estimate D2E/DX2                !
 ! D47   D(10,7,9,22)          -59.964          estimate D2E/DX2                !
 ! D48   D(10,7,9,23)         -180.0            estimate D2E/DX2                !
 ! D49   D(3,7,10,24)         -120.0238         estimate D2E/DX2                !
 ! D50   D(3,7,10,25)           -0.0601         estimate D2E/DX2                !
 ! D51   D(3,7,10,26)          119.9758         estimate D2E/DX2                !
 ! D52   D(8,7,10,24)            0.0            estimate D2E/DX2                !
 ! D53   D(8,7,10,25)          119.9637         estimate D2E/DX2                !
 ! D54   D(8,7,10,26)         -120.0004         estimate D2E/DX2                !
 ! D55   D(9,7,10,24)          119.9881         estimate D2E/DX2                !
 ! D56   D(9,7,10,25)         -120.0482         estimate D2E/DX2                !
 ! D57   D(9,7,10,26)           -0.0123         estimate D2E/DX2                !
 ! D58   D(5,11,12,27)          60.0364         estimate D2E/DX2                !
 ! D59   D(5,11,12,28)         180.0            estimate D2E/DX2                !
 ! D60   D(5,11,12,29)         -59.964          estimate D2E/DX2                !
 ! D61   D(13,11,12,27)       -180.0            estimate D2E/DX2                !
 ! D62   D(13,11,12,28)        -60.0364         estimate D2E/DX2                !
 ! D63   D(13,11,12,29)         59.9997         estimate D2E/DX2                !
 ! D64   D(14,11,12,27)        -59.964          estimate D2E/DX2                !
 ! D65   D(14,11,12,28)         59.9996         estimate D2E/DX2                !
 ! D66   D(14,11,12,29)       -179.9644         estimate D2E/DX2                !
 ! D67   D(5,11,13,30)         -60.0007         estimate D2E/DX2                !
 ! D68   D(5,11,13,31)        -179.9644         estimate D2E/DX2                !
 ! D69   D(5,11,13,32)          59.9996         estimate D2E/DX2                !
 ! D70   D(12,11,13,30)        180.0            estimate D2E/DX2                !
 ! D71   D(12,11,13,31)         60.0364         estimate D2E/DX2                !
 ! D72   D(12,11,13,32)        -59.9997         estimate D2E/DX2                !
 ! D73   D(14,11,13,30)         59.9996         estimate D2E/DX2                !
 ! D74   D(14,11,13,31)        -59.964          estimate D2E/DX2                !
 ! D75   D(14,11,13,32)       -180.0            estimate D2E/DX2                !
 ! D76   D(5,11,14,33)        -120.0237         estimate D2E/DX2                !
 ! D77   D(5,11,14,34)          -0.0601         estimate D2E/DX2                !
 ! D78   D(5,11,14,35)         119.9759         estimate D2E/DX2                !
 ! D79   D(12,11,14,33)          0.0            estimate D2E/DX2                !
 ! D80   D(12,11,14,34)        119.9636         estimate D2E/DX2                !
 ! D81   D(12,11,14,35)       -120.0004         estimate D2E/DX2                !
 ! D82   D(13,11,14,33)        119.9881         estimate D2E/DX2                !
 ! D83   D(13,11,14,34)       -120.0483         estimate D2E/DX2                !
 ! D84   D(13,11,14,35)         -0.0123         estimate D2E/DX2                !
 --------------------------------------------------------------------------------
 Trust Radius=3.00D-01 FncErr=1.00D-07 GrdErr=1.00D-06
 Number of steps in this run=    194 maximum allowed number of steps=    210.
 GradGradGradGradGradGradGradGradGradGradGradGradGradGradGradGradGradGrad

 Leave Link  103 at Wed Jun  2 07:26:48 2021, MaxMem=  3355443200 cpu:         0.1
 (Enter /usr/local/gqt/g09/l202.exe)
                          Input orientation:                          
 ---------------------------------------------------------------------
 Center     Atomic      Atomic             Coordinates (Angstroms)
 Number     Number       Type             X           Y           Z
 ---------------------------------------------------------------------
      1          7           0       -0.388498    1.336414   -0.000093
      2          6           0       -1.648498    1.336414   -0.000093
      3          7           0       -2.102192    0.154501   -0.000093
      4          6           0       -1.331099   -0.650526   -0.000093
      5          7           0       -0.061420    0.024574   -0.000093
      6          6           0       -2.496409    2.570131   -0.000093
      7          6           0       -3.543275   -0.135635   -0.000093
      8          6           0       -4.325018    1.171425   -0.000093
      9          6           0       -3.898661   -0.938869    1.244112
     10          6           0       -3.899012   -0.939663   -1.243685
     11          6           0        1.252258   -0.560313   -0.000093
     12          6           0        1.132765   -2.078618   -0.000093
     13          6           0        2.007110   -0.111224    1.244112
     14          6           0        2.007857   -0.110779   -1.243685
     15          1           0       -1.842204    3.470567   -0.000093
     16          1           0       -3.138240    2.578533   -0.909352
     17          1           0       -3.138875    2.578541    0.908716
     18          1           0       -4.066013    1.759241   -0.909025
     19          1           0       -5.415900    0.950643   -0.000093
     20          1           0       -4.064563    1.759294    0.908390
     21          1           0       -3.327852   -1.894351    1.245091
     22          1           0       -4.989655   -1.159098    1.243786
     23          1           0       -3.638318   -0.350446    2.152269
     24          1           0       -4.643547   -0.376556   -1.849777
     25          1           0       -2.981119   -1.110395   -1.849566
     26          1           0       -4.332127   -1.919134   -0.940671
     27          1           0        0.581228   -2.407887   -0.909025
     28          1           0        2.150000   -2.530284   -0.000093
     29          1           0        0.580015   -2.407091    0.908390
     30          1           0        2.094998    0.998301    1.245091
     31          1           0        3.024116   -0.563405    1.243786
     32          1           0        1.454131   -0.440212    2.152269
     33          1           0        2.288810   -1.000997   -1.849777
     34          1           0        1.358363    0.559918   -1.849566
     35          1           0        2.928130    0.436987   -0.940671
 ---------------------------------------------------------------------
                    Distance matrix (angstroms):
                    1          2          3          4          5
     1  N    0.000000
     2  C    1.260000   0.000000
     3  N    2.081746   1.266000   0.000000
     4  C    2.199188   2.012131   1.114743   0.000000
     5  N    1.352000   2.059063   2.044904   1.438000   0.000000
     6  C    2.442406   1.497001   2.447586   3.424993   3.522646
     7  C    3.481314   2.399397   1.470000   2.271307   3.485539
     8  C    3.939976   2.681600   2.444400   3.504719   4.415148
     9  C    4.364196   3.433394   2.443523   2.867675   4.147371
    10  C    4.364717   3.433928   2.443824   2.867804   4.147697
    11  C    2.507918   3.465827   3.429766   2.584932   1.438000
    12  C    3.738540   4.404301   3.930874   2.847819   2.418573
    13  C    3.063109   4.123975   4.301746   3.603128   2.417706
    14  C    3.063235   4.124296   4.302255   3.603675   2.418005
    15  H    2.582222   2.142926   3.326242   4.152666   3.878925
    16  H    3.151300   2.142182   2.788562   3.810424   4.100766
    17  H    3.151728   2.142437   2.788658   3.810625   4.101147
    18  H    3.811700   2.617120   2.694057   3.756713   4.457801
    19  H    5.042181   3.787101   3.408006   4.387407   5.433973
    20  H    3.810200   2.615634   2.692880   3.755582   4.456428
    21  H    4.541820   3.848189   2.692679   2.661692   3.987773
    22  H    5.380099   4.351798   3.407377   3.897552   5.218794
    23  H    4.247292   3.381944   2.692084   3.169538   4.191360
    24  H    4.945810   3.914833   3.187764   3.803775   4.957633
    25  H    4.016106   3.344145   2.406870   2.520832   3.637767
    26  H    5.199566   4.322632   3.187046   3.391198   4.785564
    27  H    3.973200   4.451699   3.820044   2.751630   2.675074
    28  H    4.625508   5.420327   5.028838   3.956203   3.379005
    29  H    3.972051   4.450330   3.818551   2.750131   2.673906
    30  H    2.798670   3.959617   4.458574   4.000907   2.673718
    31  H    4.099083   5.195177   5.323688   4.530201   3.378385
    32  H    3.344300   4.173173   4.199259   3.526245   2.673122
    33  H    4.006594   4.938341   4.902796   4.080184   3.161757
    34  H    2.659891   3.614514   3.944661   3.481225   2.392264
    35  H    3.562819   4.758065   5.125293   4.495376   3.161041
                    6          7          8          9         10
     6  C    0.000000
     7  C    2.901224   0.000000
     8  C    2.302214   1.523000   0.000000
     9  C    3.978371   1.523000   2.486598   0.000000
    10  C    3.979004   1.523001   2.486905   2.487797   0.000000
    11  C    4.883870   4.814300   5.839942   5.312562   5.312816
    12  C    5.897607   5.063648   6.352179   5.306818   5.306837
    13  C    5.386965   5.688182   6.579444   5.963483   6.462022
    14  C    5.387227   5.688779   6.579960   6.462339   5.964742
    15  H    1.113000   3.987272   3.383847   5.021970   5.022660
    16  H    1.113000   2.890936   2.053082   4.193777   3.615004
    17  H    1.112999   2.890713   2.052521   3.614130   4.193852
    18  H    1.986796   2.165633   1.113000   3.455981   2.724696
    19  H    3.338588   2.164884   1.113000   2.724026   2.724101
    20  H    1.985423   2.165142   1.113000   2.724026   3.455894
    21  H    4.708862   2.165634   3.455981   1.113000   2.726107
    22  H    4.655176   2.164885   2.724025   1.113000   2.724916
    23  H    3.803471   2.165142   2.724025   1.113000   3.456536
    24  H    4.088337   2.165634   2.432907   3.231594   1.113000
    25  H    4.147501   2.164885   3.230065   3.231431   1.113000
    26  H    4.940450   2.165143   3.230525   2.433534   1.113000
    27  H    5.922725   4.795916   6.140756   5.182993   4.726545
    28  H    6.899518   6.176384   7.458452   6.377064   6.377079
    29  H    5.921357   4.794411   6.139256   4.725137   5.181356
    30  H    5.010205   5.884422   6.541946   6.298935   6.773320
    31  H    6.468576   6.697824   7.652884   6.932951   7.366056
    32  H    5.413095   5.449724   6.374057   5.452136   6.359095
    33  H    6.250809   6.179272   7.203018   6.918151   6.217737
    34  H    4.724487   5.284922   6.007937   6.281203   5.500530
    35  H    5.904288   6.564424   7.350663   7.298721   6.971144
                   11         12         13         14         15
    11  C    0.000000
    12  C    1.523000   0.000000
    13  C    1.523000   2.486597   0.000000
    14  C    1.523001   2.486905   2.487797   0.000000
    15  H    5.081701   6.296340   5.403193   5.403289   0.000000
    16  H    5.473169   6.384144   6.192481   5.816055   1.817192
    17  H    5.473608   6.384510   5.816226   6.193071   1.817416
    18  H    5.872861   6.525535   6.709505   6.364029   2.949597
    19  H    6.837201   7.215361   7.601098   7.601665   4.372793
    20  H    5.871499   6.524349   6.362135   6.708419   2.948334
    21  H    4.930269   4.634818   5.625066   6.151823   5.704382
    22  H    6.392750   6.314806   7.074798   7.500111   5.734761
    23  H    5.347377   5.512030   5.723009   6.593120   4.739075
    24  H    6.181878   6.299534   7.339877   6.684247   5.105801
    25  H    4.652378   4.613247   5.954126   5.124081   5.069802
    26  H    5.823782   5.547537   6.944620   6.599800   6.011096
    27  H    2.165633   1.113000   3.455980   2.724697   6.423037
    28  H    2.164885   1.113000   2.724025   2.724102   7.207490
    29  H    2.165142   1.113000   2.724025   3.455895   6.421787
    30  H    2.165634   3.455981   1.113001   2.726107   4.812914
    31  H    2.164885   2.724025   1.113000   2.724916   6.442145
    32  H    2.165142   2.724025   1.113000   3.456536   5.549115
    33  H    2.165635   2.432907   3.231594   1.113001   6.362507
    34  H    2.164885   3.230065   3.231431   1.113000   4.704897
    35  H    2.165142   3.230525   2.433534   1.112999   5.730915
                   16         17         18         19         20
    16  H    0.000000
    17  H    1.818068   0.000000
    18  H    1.237741   2.198868   0.000000
    19  H    2.943554   2.942929   1.817191   0.000000
    20  H    2.198502   1.236149   1.817416   1.818068   0.000000
    21  H    4.968327   4.489501   4.305094   3.742248   3.742357
    22  H    4.693999   4.184209   3.742247   2.485946   3.079821
    23  H    4.266441   3.220999   3.742355   3.079820   2.485945
    24  H    3.447158   4.313458   2.404202   2.404021   3.536179
    25  H    3.810102   4.608824   3.208804   3.687355   4.124959
    26  H    4.653532   5.007311   3.688124   3.208562   4.125706
    27  H    6.220838   6.481343   6.241939   6.933356   6.500136
    28  H    7.408930   7.409334   7.606905   8.328247   7.605696
    29  H    6.479665   6.219861   6.499761   6.931862   6.239461
    30  H    5.875844   5.477566   6.570944   7.613563   6.215518
    31  H    7.244474   6.925789   7.765257   8.664493   7.467047
    32  H    6.290963   5.635157   6.684393   7.332426   6.069682
    33  H    6.568889   7.062729   6.991974   8.160440   7.456007
    34  H    5.017793   5.648726   5.634434   7.033054   6.201044
    35  H    6.433354   6.694403   7.118103   8.412572   7.352909
                   21         22         23         24         25
    21  H    0.000000
    22  H    1.817192   0.000000
    23  H    1.817417   1.818068   0.000000
    24  H    3.689575   3.209719   4.126444   0.000000
    25  H    3.211186   3.688552   4.126029   1.817192   0.000000
    26  H    2.405564   2.404548   3.536726   1.817417   1.818068
    27  H    4.492754   6.101541   5.604387   5.684153   3.906203
    28  H    5.653473   7.375775   6.548968   7.362890   5.636046
    29  H    3.955717   5.717622   4.855034   6.246292   4.687154
    30  H    6.146116   7.405854   5.959279   7.541646   6.307968
    31  H    6.489909   8.035881   6.727460   8.270314   6.777232
    32  H    5.079848   6.547100   5.093240   7.293977   6.011262
    33  H    6.474811   7.910195   7.181256   6.960424   5.271064
    34  H    6.128699   7.267818   6.466086   6.074529   4.649844
    35  H    7.024956   8.367237   7.300998   7.669330   6.175735
                   26         27         28         29         30
    26  H    0.000000
    27  H    4.937706   0.000000
    28  H    6.578462   1.817191   0.000000
    29  H    5.271268   1.817416   1.818068   0.000000
    30  H    7.388973   4.305094   3.742248   3.742357   0.000000
    31  H    7.792571   3.742247   2.485946   3.079821   1.817192
    32  H    6.725643   3.742356   3.079821   2.485946   1.817416
    33  H    6.745832   2.404203   2.404021   3.536180   3.689575
    34  H    6.273234   3.208804   3.687355   4.124959   3.211186
    35  H    7.632997   3.688124   3.208562   4.125706   2.405564
                   31         32         33         34         35
    31  H    0.000000
    32  H    1.818068   0.000000
    33  H    3.209719   4.126444   0.000000
    34  H    3.688552   4.126029   1.817192   0.000000
    35  H    2.404548   3.536726   1.817416   1.818068   0.000000
 Stoichiometry    C11H21N3
 Framework group  C1[X(C11H21N3)]
 Deg. of freedom    99
 Full point group                 C1      NOp   1
 Largest Abelian subgroup         C1      NOp   1
 Largest concise Abelian subgroup C1      NOp   1
                         Standard orientation:                         
 ---------------------------------------------------------------------
 Center     Atomic      Atomic             Coordinates (Angstroms)
 Number     Number       Type             X           Y           Z
 ---------------------------------------------------------------------
      1          7           0        0.636184    1.401715   -0.000087
      2          6           0       -0.605422    1.187206   -0.000087
      3          7           0       -0.851278   -0.054693   -0.000087
      4          6           0        0.045611   -0.716692   -0.000087
      5          7           0        1.181822    0.164709   -0.000087
      6          6           0       -1.650990    2.258560   -0.000087
      7          6           0       -2.221929   -0.585931   -0.000087
      8          6           0       -3.214781    0.568960   -0.000087
      9          6           0       -2.435380   -1.437942    1.244118
     10          6           0       -2.435591   -1.438784   -1.243679
     11          6           0        2.575897   -0.187992   -0.000087
     12          6           0        2.716633   -1.704475   -0.000087
     13          6           0        3.243274    0.383052    1.244118
     14          6           0        3.243934    0.383617   -1.243679
     15          1           0       -1.159630    3.257226   -0.000087
     16          1           0       -2.284882    2.157570   -0.909346
     17          1           0       -2.285509    2.157470    0.908722
     18          1           0       -3.059630    1.192289   -0.909019
     19          1           0       -4.252151    0.165683   -0.000087
     20          1           0       -3.058210    1.192588    0.908396
     21          1           0       -1.710237   -2.282298    1.245097
     22          1           0       -3.472954   -1.840693    1.243792
     23          1           0       -2.279014   -0.813787    2.152275
     24          1           0       -3.265123   -1.010651   -1.849771
     25          1           0       -1.502031   -1.450757   -1.849560
     26          1           0       -2.695632   -2.477692   -0.940665
     27          1           0        2.229204   -2.122834   -0.909019
     28          1           0        3.795912   -1.976368   -0.000087
     29          1           0        2.227873   -2.122256    0.908396
     30          1           0        3.140987    1.491342    1.245097
     31          1           0        4.322415    0.110612    1.243792
     32          1           0        2.754376   -0.035276    2.152275
     33          1           0        3.672341   -0.445774   -1.849771
     34          1           0        2.489739    0.933950   -1.849560
     35          1           0        4.057518    1.080059   -0.940665
 ---------------------------------------------------------------------
 Rotational constants (GHZ):      1.3362076      0.4527459      0.3968014
 Leave Link  202 at Wed Jun  2 07:26:48 2021, MaxMem=  3355443200 cpu:         0.0
 (Enter /usr/local/gqt/g09/l301.exe)
 Standard basis: 6-311+G(d,p) (5D, 7F)
 Ernie: Thresh=  0.10000D-02 Tol=  0.10000D-05 Strict=F.
 There are   448 symmetry adapted cartesian basis functions of A   symmetry.
 There are   434 symmetry adapted basis functions of A   symmetry.
   434 basis functions,   672 primitive gaussians,   448 cartesian basis functions
    54 alpha electrons       54 beta electrons
       nuclear repulsion energy      1004.9474953703 Hartrees.
 IExCor= 5547 DFT=T Ex+Corr=N12SX ExCW=0 ScaHFX=  0.250000
 ScaDFX=  1.000000  1.000000  1.000000  1.000000 ScalE2=  1.000000  1.000000
 IRadAn=      0 IRanWt=     -1 IRanGd=            0 ICorTp=0 IEmpDi=  4
  HFx wShort=  0.110000 wLong=  0.000000 cFull=  0.000000 cShort=  1.000000 cLong=  0.000000
  DFx wShort=  0.110000 wLong=  0.000000 cFull=  0.000000 cShort=  1.000000 cLong=  0.000000
 NAtoms=   35 NActive=   35 NUniq=   35 SFac= 1.00D+00 NAtFMM=   60 NAOKFM=F Big=F
 Integral buffers will be    131072 words long.
 Raffenetti 2 integral format.
 Two-electron integral symmetry is turned on.
 ------------------------------------------------------------------------------
 Polarizable Continuum Model (PCM)
 =================================
 Model                : PCM (using non-symmetric T matrix).
 Atomic radii         : UFF (Universal Force Field).
 Polarization charges : Total charges.
 Charge compensation  : None.
 Solution method      : On-the-fly selection.
 Cavity type          : Scaled VdW (van der Waals Surface) (Alpha=1.100).
 Cavity algorithm     : GePol (No added spheres)
                        Default sphere list used, NSphG=   35.
                        Lebedev-Laikov grids with approx.  5.0 points / Ang**2.
                        Smoothing algorithm: Karplus/York (Gamma=1.0000).
                        Polarization charges: spherical gaussians, with
                                              point-specific exponents (IZeta= 3).
                        Self-potential: point-specific (ISelfS= 7).
                        Self-field    : sphere-specific E.n sum rule (ISelfD= 2).
 1st derivatives      : Analytical E(r).r(x)/FMM algorithm (CHGder, D1EAlg=3).
                        Cavity 1st derivative terms included.
 Solvent              : Water, Eps=  78.355300 Eps(inf)=   1.777849
 ------------------------------------------------------------------------------
 GePol: Number of generator spheres                  =      35
 GePol: Total number of spheres                      =      35
 GePol: Number of exposed spheres                    =      35 (100.00%)
 GePol: Number of points                             =    2202
 GePol: Average weight of points                     =       0.13
 GePol: Minimum weight of points                     =   0.35D-09
 GePol: Maximum weight of points                     =    0.20577
 GePol: Number of points with low weight             =     160
 GePol: Fraction of low-weight points (<1% of avg)   =       7.27%
 GePol: Cavity surface area                          =    290.481 Ang**2
 GePol: Cavity volume                                =    312.937 Ang**3
 Leave Link  301 at Wed Jun  2 07:26:49 2021, MaxMem=  3355443200 cpu:         0.7
 (Enter /usr/local/gqt/g09/l302.exe)
 NPDir=0 NMtPBC=     1 NCelOv=     1 NCel=       1 NClECP=     1 NCelD=      1
         NCelK=      1 NCelE2=     1 NClLst=     1 CellRange=     0.0.
 One-electron integrals computed using PRISM.
 NBasis=   434 RedAO= T EigKep=  3.80D-06  NBF=   434
 NBsUse=   434 1.00D-06 EigRej= -1.00D+00 NBFU=   434
 Precomputing XC quadrature grid using
 IXCGrd= 4 IRadAn=           0 IRanWt=          -1 IRanGd=           0 AccXCQ= 0.00D+00.
 Generated NRdTot=       0 NPtTot=           0 NUsed=           0 NTot=          32
 NSgBfM=   448   448   448   448   448 MxSgAt=    35 MxSgA2=    35.
 Leave Link  302 at Wed Jun  2 07:26:49 2021, MaxMem=  3355443200 cpu:         8.7
 (Enter /usr/local/gqt/g09/l303.exe)
 DipDrv:  MaxL=1.
 Leave Link  303 at Wed Jun  2 07:26:49 2021, MaxMem=  3355443200 cpu:         1.0
 (Enter /usr/local/gqt/g09/l401.exe)
 ExpMin= 4.38D-02 ExpMax= 6.29D+03 ExpMxC= 9.49D+02 IAcc=2 IRadAn=         4 AccDes= 0.00D+00
 Harris functional with IExCor= 5547 and IRadAn=       4 diagonalized for initial guess.
 HarFok:  IExCor= 5547 AccDes= 0.00D+00 IRadAn=         4 IDoV= 1 UseB2=F ITyADJ=14
 ICtDFT=  3500011 ScaDFX=  1.000000  1.000000  1.000000  1.000000
 FoFCou: FMM=F IPFlag=           0 FMFlag=      100000 FMFlg1=           0
         NFxFlg=           0 DoJE=T BraDBF=F KetDBF=T FulRan=T
         wScrn=  0.000000 ICntrl=     500 IOpCl=  0 I1Cent=   200000004 NGrid=           0
         NMat0=    1 NMatS0=      1 NMatT0=    0 NMatD0=    1 NMtDS0=    0 NMtDT0=    0
 Petite list used in FoFCou.
 Harris En= -576.596473875310    
 JPrj=0 DoOrth=F DoCkMO=F.
 Leave Link  401 at Wed Jun  2 07:26:51 2021, MaxMem=  3355443200 cpu:        29.6
 (Enter /usr/local/gqt/g09/l502.exe)
 Closed shell SCF:
 Using DIIS extrapolation, IDIIS=  1040.
 Integral symmetry usage will be decided dynamically.
 IVT=      631190 IEndB=      631190 NGot=  3355443200 MDV=  3355029803
 LenX=  3355029803 LenY=  3354828651
 Requested convergence on RMS density matrix=1.00D-08 within 128 cycles.
 Requested convergence on MAX density matrix=1.00D-06.
 Requested convergence on             energy=1.00D-06.
 No special actions if energy rises.
 Fock matrices will be formed incrementally for  20 cycles.

 Cycle   1  Pass 1  IDiag  1:
 FoFJK:  IHMeth= 1 ICntrl=       0 DoSepK=T KAlg= 0 I1Cent=   0 FoldK=F
 IRaf=         1 NMat=   1 IRICut=       1 DoRegI=T DoRafI=F ISym2E= 0.
 FoFCou: FMM=F IPFlag=           0 FMFlag=      100000 FMFlg1=           0
         NFxFlg=           0 DoJE=T BraDBF=F KetDBF=F FulRan=T
         wScrn=  0.000000 ICntrl=     500 IOpCl=  0 I1Cent=           0 NGrid=           0
         NMat0=    1 NMatS0=      1 NMatT0=    0 NMatD0=    1 NMtDS0=    0 NMtDT0=    0
 Symmetry not used in FoFCou.
 Inv3:  Mode=1 IEnd=    14546412.
 Iteration    1 A*A^-1 deviation from unit magnitude is 4.88D-15 for   2178.
 Iteration    1 A*A^-1 deviation from orthogonality  is 2.50D-15 for   1585    507.
 Iteration    1 A^-1*A deviation from unit magnitude is 4.00D-15 for   2178.
 Iteration    1 A^-1*A deviation from orthogonality  is 1.97D-12 for   1762   1740.
 E= -595.413150470369    
 DIIS: error= 7.07D-02 at cycle   1 NSaved=   1.
 NSaved= 1 IEnMin= 1 EnMin= -595.413150470369     IErMin= 1 ErrMin= 7.07D-02
 ErrMax= 7.07D-02  0.00D+00 EMaxC= 1.00D-01 BMatC= 1.51D+00 BMatP= 1.51D+00
 IDIUse=3 WtCom= 2.93D-01 WtEn= 7.07D-01
 Coeff-Com:  0.100D+01
 Coeff-En:   0.100D+01
 Coeff:      0.100D+01
 Gap=     0.208 Goal=   None    Shift=    0.000
 GapD=    0.208 DampG=1.000 DampE=0.500 DampFc=0.5000 IDamp=-1.
 Damping current iteration by 5.00D-01
 RMSDP=8.51D-03 MaxDP=1.25D+00              OVMax= 1.94D-01

 Cycle   2  Pass 1  IDiag  1:
 RMSU=  3.36D-03    CP:  8.81D-01
 E= -595.510545859689     Delta-E=       -0.097395389320 Rises=F Damp=T
 DIIS: error= 3.25D-02 at cycle   2 NSaved=   2.
 NSaved= 2 IEnMin= 2 EnMin= -595.510545859689     IErMin= 2 ErrMin= 3.25D-02
 ErrMax= 3.25D-02  0.00D+00 EMaxC= 1.00D-01 BMatC= 3.20D-01 BMatP= 1.51D+00
 IDIUse=3 WtCom= 6.75D-01 WtEn= 3.25D-01
 Coeff-Com: -0.396D+00 0.140D+01
 Coeff-En:   0.196D+00 0.804D+00
 Coeff:     -0.204D+00 0.120D+01
 Gap=     0.240 Goal=   None    Shift=    0.000
 RMSDP=4.16D-03 MaxDP=4.50D-01 DE=-9.74D-02 OVMax= 3.94D-01

 Cycle   3  Pass 1  IDiag  1:
 RMSU=  3.64D-03    CP:  7.93D-01  8.54D-01
 E= -595.450256298242     Delta-E=        0.060289561447 Rises=F Damp=F
 DIIS: error= 3.45D-02 at cycle   3 NSaved=   3.
 NSaved= 3 IEnMin= 2 EnMin= -595.510545859689     IErMin= 2 ErrMin= 3.25D-02
 ErrMax= 3.45D-02  0.00D+00 EMaxC= 1.00D-01 BMatC= 2.59D-01 BMatP= 3.20D-01
 IDIUse=3 WtCom= 6.55D-01 WtEn= 3.45D-01
 Coeff-Com: -0.364D+00 0.843D+00 0.521D+00
 Coeff-En:   0.000D+00 0.615D+00 0.385D+00
 Coeff:     -0.238D+00 0.764D+00 0.474D+00
 Gap=     0.234 Goal=   None    Shift=    0.000
 RMSDP=3.61D-03 MaxDP=3.52D-01 DE= 6.03D-02 OVMax= 2.61D-01

 Cycle   4  Pass 1  IDiag  1:
 RMSU=  1.75D-03    CP:  7.28D-01  1.32D+00  3.55D-01
 E= -595.656303742485     Delta-E=       -0.206047444244 Rises=F Damp=F
 DIIS: error= 1.25D-02 at cycle   4 NSaved=   4.
 NSaved= 4 IEnMin= 4 EnMin= -595.656303742485     IErMin= 4 ErrMin= 1.25D-02
 ErrMax= 1.25D-02  0.00D+00 EMaxC= 1.00D-01 BMatC= 3.08D-02 BMatP= 2.59D-01
 IDIUse=3 WtCom= 8.75D-01 WtEn= 1.25D-01
 Coeff-Com: -0.164D+00 0.375D+00 0.338D+00 0.451D+00
 Coeff-En:   0.000D+00 0.000D+00 0.116D+00 0.884D+00
 Coeff:     -0.144D+00 0.328D+00 0.310D+00 0.505D+00
 Gap=     0.195 Goal=   None    Shift=    0.000
 RMSDP=1.17D-03 MaxDP=1.15D-01 DE=-2.06D-01 OVMax= 7.66D-02

 Cycle   5  Pass 1  IDiag  1:
 RMSU=  5.11D-04    CP:  7.46D-01  1.28D+00  5.23D-01  5.70D-01
 E= -595.682700611602     Delta-E=       -0.026396869117 Rises=F Damp=F
 DIIS: error= 2.31D-03 at cycle   5 NSaved=   5.
 NSaved= 5 IEnMin= 5 EnMin= -595.682700611602     IErMin= 5 ErrMin= 2.31D-03
 ErrMax= 2.31D-03  0.00D+00 EMaxC= 1.00D-01 BMatC= 1.34D-03 BMatP= 3.08D-02
 IDIUse=3 WtCom= 9.77D-01 WtEn= 2.31D-02
 Coeff-Com: -0.853D-02 0.222D-01 0.446D-01 0.218D+00 0.724D+00
 Coeff-En:   0.000D+00 0.000D+00 0.000D+00 0.110D-02 0.999D+00
 Coeff:     -0.833D-02 0.217D-01 0.436D-01 0.213D+00 0.730D+00
 Gap=     0.194 Goal=   None    Shift=    0.000
 RMSDP=3.85D-04 MaxDP=4.84D-02 DE=-2.64D-02 OVMax= 1.08D-02

 Cycle   6  Pass 1  IDiag  1:
 RMSU=  1.64D-04    CP:  7.35D-01  1.25D+00  5.04D-01  6.99D-01  8.71D-01
 E= -595.683760456885     Delta-E=       -0.001059845283 Rises=F Damp=F
 DIIS: error= 5.21D-04 at cycle   6 NSaved=   6.
 NSaved= 6 IEnMin= 6 EnMin= -595.683760456885     IErMin= 6 ErrMin= 5.21D-04
 ErrMax= 5.21D-04  0.00D+00 EMaxC= 1.00D-01 BMatC= 1.02D-04 BMatP= 1.34D-03
 IDIUse=3 WtCom= 9.95D-01 WtEn= 5.21D-03
 Coeff-Com:  0.649D-02-0.137D-01 0.485D-03 0.816D-01 0.392D+00 0.533D+00
 Coeff-En:   0.000D+00 0.000D+00 0.000D+00 0.000D+00 0.000D+00 0.100D+01
 Coeff:      0.645D-02-0.136D-01 0.483D-03 0.812D-01 0.390D+00 0.535D+00
 Gap=     0.194 Goal=   None    Shift=    0.000
 RMSDP=7.38D-05 MaxDP=1.08D-02 DE=-1.06D-03 OVMax= 2.05D-03

 Cycle   7  Pass 1  IDiag  1:
 RMSU=  3.66D-05    CP:  7.37D-01  1.26D+00  5.06D-01  6.79D-01  8.89D-01
                    CP:  8.28D-01
 E= -595.683841614358     Delta-E=       -0.000081157473 Rises=F Damp=F
 DIIS: error= 9.70D-05 at cycle   7 NSaved=   7.
 NSaved= 7 IEnMin= 7 EnMin= -595.683841614358     IErMin= 7 ErrMin= 9.70D-05
 ErrMax= 9.70D-05  0.00D+00 EMaxC= 1.00D-01 BMatC= 2.58D-06 BMatP= 1.02D-04
 IDIUse=1 WtCom= 1.00D+00 WtEn= 0.00D+00
 Coeff-Com:  0.255D-02-0.541D-02-0.227D-02 0.168D-01 0.886D-01 0.187D+00
 Coeff-Com:  0.713D+00
 Coeff:      0.255D-02-0.541D-02-0.227D-02 0.168D-01 0.886D-01 0.187D+00
 Coeff:      0.713D+00
 Gap=     0.194 Goal=   None    Shift=    0.000
 RMSDP=1.98D-05 MaxDP=3.15D-03 DE=-8.12D-05 OVMax= 4.16D-04

 Cycle   8  Pass 1  IDiag  1:
 RMSU=  1.09D-05    CP:  7.37D-01  1.26D+00  5.05D-01  6.83D-01  8.96D-01
                    CP:  8.37D-01  8.59D-01
 E= -595.683843271634     Delta-E=       -0.000001657276 Rises=F Damp=F
 DIIS: error= 4.30D-05 at cycle   8 NSaved=   8.
 NSaved= 8 IEnMin= 8 EnMin= -595.683843271634     IErMin= 8 ErrMin= 4.30D-05
 ErrMax= 4.30D-05  0.00D+00 EMaxC= 1.00D-01 BMatC= 6.47D-07 BMatP= 2.58D-06
 IDIUse=1 WtCom= 1.00D+00 WtEn= 0.00D+00
 Coeff-Com:  0.663D-03-0.136D-02-0.820D-03 0.337D-02 0.170D-01 0.598D-01
 Coeff-Com:  0.397D+00 0.525D+00
 Coeff:      0.663D-03-0.136D-02-0.820D-03 0.337D-02 0.170D-01 0.598D-01
 Coeff:      0.397D+00 0.525D+00
 Gap=     0.194 Goal=   None    Shift=    0.000
 RMSDP=5.43D-06 MaxDP=6.14D-04 DE=-1.66D-06 OVMax= 2.41D-04

 Cycle   9  Pass 1  IDiag  1:
 RMSU=  3.93D-06    CP:  7.37D-01  1.26D+00  5.05D-01  6.83D-01  8.92D-01
                    CP:  8.38D-01  8.87D-01  8.55D-01
 E= -595.683843764694     Delta-E=       -0.000000493060 Rises=F Damp=F
 DIIS: error= 1.25D-05 at cycle   9 NSaved=   9.
 NSaved= 9 IEnMin= 9 EnMin= -595.683843764694     IErMin= 9 ErrMin= 1.25D-05
 ErrMax= 1.25D-05  0.00D+00 EMaxC= 1.00D-01 BMatC= 6.12D-08 BMatP= 6.47D-07
 IDIUse=1 WtCom= 1.00D+00 WtEn= 0.00D+00
 Coeff-Com:  0.724D-04-0.138D-03-0.179D-03-0.533D-03-0.266D-02 0.687D-02
 Coeff-Com:  0.104D+00 0.278D+00 0.615D+00
 Coeff:      0.724D-04-0.138D-03-0.179D-03-0.533D-03-0.266D-02 0.687D-02
 Coeff:      0.104D+00 0.278D+00 0.615D+00
 Gap=     0.194 Goal=   None    Shift=    0.000
 RMSDP=2.05D-06 MaxDP=1.88D-04 DE=-4.93D-07 OVMax= 4.99D-05

 Cycle  10  Pass 1  IDiag  1:
 RMSU=  1.32D-06    CP:  7.37D-01  1.26D+00  5.05D-01  6.83D-01  8.93D-01
                    CP:  8.39D-01  8.98D-01  8.38D-01  7.00D-01
 E= -595.683843809949     Delta-E=       -0.000000045255 Rises=F Damp=F
 DIIS: error= 5.00D-06 at cycle  10 NSaved=  10.
 NSaved=10 IEnMin=10 EnMin= -595.683843809949     IErMin=10 ErrMin= 5.00D-06
 ErrMax= 5.00D-06  0.00D+00 EMaxC= 1.00D-01 BMatC= 3.99D-09 BMatP= 6.12D-08
 IDIUse=1 WtCom= 1.00D+00 WtEn= 0.00D+00
 Coeff-Com:  0.110D-05 0.136D-05-0.209D-04-0.451D-03-0.217D-02-0.979D-04
 Coeff-Com:  0.237D-01 0.107D+00 0.288D+00 0.583D+00
 Coeff:      0.110D-05 0.136D-05-0.209D-04-0.451D-03-0.217D-02-0.979D-04
 Coeff:      0.237D-01 0.107D+00 0.288D+00 0.583D+00
 Gap=     0.194 Goal=   None    Shift=    0.000
 RMSDP=1.35D-06 MaxDP=1.28D-04 DE=-4.53D-08 OVMax= 2.41D-05

 Cycle  11  Pass 1  IDiag  1:
 RMSU=  5.20D-07    CP:  7.37D-01  1.26D+00  5.05D-01  6.83D-01  8.94D-01
                    CP:  8.43D-01  8.91D-01  8.59D-01  7.93D-01  7.58D-01
 E= -595.683843813339     Delta-E=       -0.000000003390 Rises=F Damp=F
 DIIS: error= 1.08D-06 at cycle  11 NSaved=  11.
 NSaved=11 IEnMin=11 EnMin= -595.683843813339     IErMin=11 ErrMin= 1.08D-06
 ErrMax= 1.08D-06  0.00D+00 EMaxC= 1.00D-01 BMatC= 5.95D-10 BMatP= 3.99D-09
 IDIUse=1 WtCom= 1.00D+00 WtEn= 0.00D+00
 Coeff-Com: -0.347D-05 0.485D-05 0.130D-04-0.149D-03-0.585D-03-0.928D-03
 Coeff-Com: -0.571D-02 0.820D-02 0.282D-01 0.292D+00 0.679D+00
 Coeff:     -0.347D-05 0.485D-05 0.130D-04-0.149D-03-0.585D-03-0.928D-03
 Coeff:     -0.571D-02 0.820D-02 0.282D-01 0.292D+00 0.679D+00
 Gap=     0.194 Goal=   None    Shift=    0.000
 RMSDP=2.49D-07 MaxDP=2.22D-05 DE=-3.39D-09 OVMax= 7.84D-06

 Cycle  12  Pass 1  IDiag  1:
 RMSU=  9.32D-08    CP:  7.37D-01  1.26D+00  5.05D-01  6.83D-01  8.94D-01
                    CP:  8.42D-01  8.94D-01  8.64D-01  7.75D-01  8.05D-01
                    CP:  7.78D-01
 E= -595.683843813933     Delta-E=       -0.000000000593 Rises=F Damp=F
 DIIS: error= 2.28D-07 at cycle  12 NSaved=  12.
 NSaved=12 IEnMin=12 EnMin= -595.683843813933     IErMin=12 ErrMin= 2.28D-07
 ErrMax= 2.28D-07  0.00D+00 EMaxC= 1.00D-01 BMatC= 1.48D-11 BMatP= 5.95D-10
 IDIUse=1 WtCom= 1.00D+00 WtEn= 0.00D+00
 Coeff-Com: -0.914D-06 0.107D-05 0.448D-05-0.246D-04-0.715D-04-0.273D-03
 Coeff-Com: -0.329D-02-0.360D-02-0.111D-01 0.576D-01 0.217D+00 0.744D+00
 Coeff:     -0.914D-06 0.107D-05 0.448D-05-0.246D-04-0.715D-04-0.273D-03
 Coeff:     -0.329D-02-0.360D-02-0.111D-01 0.576D-01 0.217D+00 0.744D+00
 Gap=     0.194 Goal=   None    Shift=    0.000
 RMSDP=3.92D-08 MaxDP=2.18D-06 DE=-5.93D-10 OVMax= 8.63D-07

 Cycle  13  Pass 1  IDiag  1:
 RMSU=  2.99D-08    CP:  7.37D-01  1.26D+00  5.05D-01  6.83D-01  8.94D-01
                    CP:  8.42D-01  8.94D-01  8.64D-01  7.79D-01  8.12D-01
                    CP:  7.92D-01  9.24D-01
 E= -595.683843813919     Delta-E=        0.000000000014 Rises=F Damp=F
 DIIS: error= 1.03D-07 at cycle  13 NSaved=  13.
 NSaved=13 IEnMin=12 EnMin= -595.683843813933     IErMin=13 ErrMin= 1.03D-07
 ErrMax= 1.03D-07  0.00D+00 EMaxC= 1.00D-01 BMatC= 2.45D-12 BMatP= 1.48D-11
 IDIUse=1 WtCom= 1.00D+00 WtEn= 0.00D+00
 Coeff-Com: -0.700D-06 0.123D-05 0.169D-05-0.471D-05-0.120D-04-0.812D-04
 Coeff-Com: -0.117D-02-0.196D-02-0.675D-02 0.104D-01 0.645D-01 0.367D+00
 Coeff-Com:  0.568D+00
 Coeff:     -0.700D-06 0.123D-05 0.169D-05-0.471D-05-0.120D-04-0.812D-04
 Coeff:     -0.117D-02-0.196D-02-0.675D-02 0.104D-01 0.645D-01 0.367D+00
 Coeff:      0.568D+00
 Gap=     0.194 Goal=   None    Shift=    0.000
 RMSDP=1.03D-08 MaxDP=6.93D-07 DE= 1.39D-11 OVMax= 3.38D-07

 Cycle  14  Pass 1  IDiag  1:
 RMSU=  6.37D-09    CP:  7.37D-01  1.26D+00  5.05D-01  6.83D-01  8.94D-01
                    CP:  8.42D-01  8.94D-01  8.64D-01  7.78D-01  8.13D-01
                    CP:  7.98D-01  9.37D-01  8.71D-01
 E= -595.683843813873     Delta-E=        0.000000000046 Rises=F Damp=F
 DIIS: error= 1.77D-08 at cycle  14 NSaved=  14.
 NSaved=14 IEnMin=12 EnMin= -595.683843813933     IErMin=14 ErrMin= 1.77D-08
 ErrMax= 1.77D-08  0.00D+00 EMaxC= 1.00D-01 BMatC= 8.42D-14 BMatP= 2.45D-12
 IDIUse=1 WtCom= 1.00D+00 WtEn= 0.00D+00
 Coeff-Com: -0.293D-06 0.589D-06 0.349D-06-0.326D-06-0.184D-05-0.139D-04
 Coeff-Com: -0.211D-03-0.460D-03-0.172D-02-0.138D-03 0.965D-02 0.876D-01
 Coeff-Com:  0.212D+00 0.693D+00
 Coeff:     -0.293D-06 0.589D-06 0.349D-06-0.326D-06-0.184D-05-0.139D-04
 Coeff:     -0.211D-03-0.460D-03-0.172D-02-0.138D-03 0.965D-02 0.876D-01
 Coeff:      0.212D+00 0.693D+00
 Gap=     0.194 Goal=   None    Shift=    0.000
 RMSDP=3.87D-09 MaxDP=2.33D-07 DE= 4.57D-11 OVMax= 8.86D-08

 Error on total polarization charges =  0.01745
 SCF Done:  E(RN12SX) =  -595.683843814     A.U. after   14 cycles
            NFock= 14  Conv=0.39D-08     -V/T= 2.0040
 KE= 5.933010083175D+02 PE=-3.393353075327D+03 EE= 1.199420727825D+03
 Leave Link  502 at Wed Jun  2 07:30:53 2021, MaxMem=  3355443200 cpu:      3840.6
 (Enter /usr/local/gqt/g09/l601.exe)
 Copying SCF densities to generalized density rwf, IOpCl= 0 IROHF=0.

 **********************************************************************

            Population analysis using the SCF density.

 **********************************************************************

 Orbital symmetries:
       Occupied  (A) (A) (A) (A) (A) (A) (A) (A) (A) (A) (A) (A)
                 (A) (A) (A) (A) (A) (A) (A) (A) (A) (A) (A) (A)
                 (A) (A) (A) (A) (A) (A) (A) (A) (A) (A) (A) (A)
                 (A) (A) (A) (A) (A) (A) (A) (A) (A) (A) (A) (A)
                 (A) (A) (A) (A) (A) (A)
       Virtual   (A) (A) (A) (A) (A) (A) (A) (A) (A) (A) (A) (A)
                 (A) (A) (A) (A) (A) (A) (A) (A) (A) (A) (A) (A)
                 (A) (A) (A) (A) (A) (A) (A) (A) (A) (A) (A) (A)
                 (A) (A) (A) (A) (A) (A) (A) (A) (A) (A) (A) (A)
                 (A) (A) (A) (A) (A) (A) (A) (A) (A) (A) (A) (A)
                 (A) (A) (A) (A) (A) (A) (A) (A) (A) (A) (A) (A)
                 (A) (A) (A) (A) (A) (A) (A) (A) (A) (A) (A) (A)
                 (A) (A) (A) (A) (A) (A) (A) (A) (A) (A) (A) (A)
                 (A) (A) (A) (A) (A) (A) (A) (A) (A) (A) (A) (A)
                 (A) (A) (A) (A) (A) (A) (A) (A) (A) (A) (A) (A)
                 (A) (A) (A) (A) (A) (A) (A) (A) (A) (A) (A) (A)
                 (A) (A) (A) (A) (A) (A) (A) (A) (A) (A) (A) (A)
                 (A) (A) (A) (A) (A) (A) (A) (A) (A) (A) (A) (A)
                 (A) (A) (A) (A) (A) (A) (A) (A) (A) (A) (A) (A)
                 (A) (A) (A) (A) (A) (A) (A) (A) (A) (A) (A) (A)
                 (A) (A) (A) (A) (A) (A) (A) (A) (A) (A) (A) (A)
                 (A) (A) (A) (A) (A) (A) (A) (A) (A) (A) (A) (A)
                 (A) (A) (A) (A) (A) (A) (A) (A) (A) (A) (A) (A)
                 (A) (A) (A) (A) (A) (A) (A) (A) (A) (A) (A) (A)
                 (A) (A) (A) (A) (A) (A) (A) (A) (A) (A) (A) (A)
                 (A) (A) (A) (A) (A) (A) (A) (A) (A) (A) (A) (A)
                 (A) (A) (A) (A) (A) (A) (A) (A) (A) (A) (A) (A)
                 (A) (A) (A) (A) (A) (A) (A) (A) (A) (A) (A) (A)
                 (A) (A) (A) (A) (A) (A) (A) (A) (A) (A) (A) (A)
                 (A) (A) (A) (A) (A) (A) (A) (A) (A) (A) (A) (A)
                 (A) (A) (A) (A) (A) (A) (A) (A) (A) (A) (A) (A)
                 (A) (A) (A) (A) (A) (A) (A) (A) (A) (A) (A) (A)
                 (A) (A) (A) (A) (A) (A) (A) (A) (A) (A) (A) (A)
                 (A) (A) (A) (A) (A) (A) (A) (A) (A) (A) (A) (A)
                 (A) (A) (A) (A) (A) (A) (A) (A) (A) (A) (A) (A)
                 (A) (A) (A) (A) (A) (A) (A) (A) (A) (A) (A) (A)
                 (A) (A) (A) (A) (A) (A) (A) (A)
 The electronic state is 1-A.
 Alpha  occ. eigenvalues --  -14.41624 -14.41172 -14.38187 -10.27730 -10.27425
 Alpha  occ. eigenvalues --  -10.27181 -10.22096 -10.21585 -10.21351 -10.21270
 Alpha  occ. eigenvalues --  -10.21177 -10.21019 -10.20912 -10.20852  -1.13612
 Alpha  occ. eigenvalues --   -0.98220  -0.87474  -0.84177  -0.79718  -0.74162
 Alpha  occ. eigenvalues --   -0.69022  -0.68953  -0.68544  -0.68242  -0.67388
 Alpha  occ. eigenvalues --   -0.64326  -0.57487  -0.54582  -0.52746  -0.49095
 Alpha  occ. eigenvalues --   -0.47935  -0.47880  -0.44780  -0.44062  -0.43332
 Alpha  occ. eigenvalues --   -0.42686  -0.41870  -0.41690  -0.39968  -0.38673
 Alpha  occ. eigenvalues --   -0.38183  -0.37646  -0.36853  -0.35311  -0.35132
 Alpha  occ. eigenvalues --   -0.34820  -0.33854  -0.33014  -0.31837  -0.30881
 Alpha  occ. eigenvalues --   -0.30643  -0.29639  -0.23706  -0.20331
 Alpha virt. eigenvalues --   -0.00939   0.00223   0.00345   0.00929   0.01417
 Alpha virt. eigenvalues --    0.02027   0.02246   0.02745   0.03002   0.03582
 Alpha virt. eigenvalues --    0.04101   0.04294   0.04323   0.04648   0.05221
 Alpha virt. eigenvalues --    0.05571   0.05943   0.06412   0.07153   0.07754
 Alpha virt. eigenvalues --    0.07929   0.07962   0.08593   0.09495   0.09856
 Alpha virt. eigenvalues --    0.10064   0.10246   0.11341   0.11704   0.12227
 Alpha virt. eigenvalues --    0.12719   0.12785   0.13284   0.13647   0.14155
 Alpha virt. eigenvalues --    0.14320   0.15004   0.15214   0.15804   0.16269
 Alpha virt. eigenvalues --    0.16852   0.17149   0.17397   0.18003   0.18344
 Alpha virt. eigenvalues --    0.18767   0.18872   0.19643   0.19741   0.20090
 Alpha virt. eigenvalues --    0.20987   0.21086   0.21392   0.21995   0.22455
 Alpha virt. eigenvalues --    0.23088   0.23440   0.23600   0.23940   0.24272
 Alpha virt. eigenvalues --    0.24482   0.25103   0.25719   0.25837   0.26419
 Alpha virt. eigenvalues --    0.27411   0.27509   0.27743   0.28279   0.29083
 Alpha virt. eigenvalues --    0.29626   0.30122   0.30310   0.30560   0.30981
 Alpha virt. eigenvalues --    0.32185   0.32377   0.32951   0.33608   0.34351
 Alpha virt. eigenvalues --    0.34716   0.35200   0.35408   0.36924   0.37279
 Alpha virt. eigenvalues --    0.38225   0.39735   0.40929   0.41573   0.43362
 Alpha virt. eigenvalues --    0.44749   0.45499   0.45935   0.46309   0.46912
 Alpha virt. eigenvalues --    0.47456   0.48368   0.49036   0.49277   0.49825
 Alpha virt. eigenvalues --    0.50632   0.51300   0.52281   0.52486   0.53522
 Alpha virt. eigenvalues --    0.54818   0.55403   0.57179   0.57548   0.58527
 Alpha virt. eigenvalues --    0.58740   0.60350   0.61092   0.61396   0.62702
 Alpha virt. eigenvalues --    0.62804   0.63293   0.63765   0.64379   0.65481
 Alpha virt. eigenvalues --    0.65744   0.67335   0.67863   0.68296   0.68670
 Alpha virt. eigenvalues --    0.69291   0.69636   0.70306   0.70468   0.71815
 Alpha virt. eigenvalues --    0.72445   0.73486   0.73972   0.74366   0.74997
 Alpha virt. eigenvalues --    0.75140   0.75858   0.76483   0.77137   0.78128
 Alpha virt. eigenvalues --    0.78958   0.79589   0.79933   0.82496   0.83864
 Alpha virt. eigenvalues --    0.84492   0.86116   0.88446   0.89327   0.90814
 Alpha virt. eigenvalues --    0.92405   0.92858   0.95520   0.96248   0.97044
 Alpha virt. eigenvalues --    0.98928   1.00978   1.03616   1.04537   1.05330
 Alpha virt. eigenvalues --    1.08417   1.10082   1.13123   1.13761   1.15995
 Alpha virt. eigenvalues --    1.17682   1.18679   1.22098   1.23074   1.25008
 Alpha virt. eigenvalues --    1.25908   1.26073   1.27661   1.29570   1.32186
 Alpha virt. eigenvalues --    1.34436   1.34943   1.37745   1.38106   1.39587
 Alpha virt. eigenvalues --    1.40311   1.41234   1.43203   1.43521   1.44816
 Alpha virt. eigenvalues --    1.45350   1.45571   1.46554   1.47243   1.47757
 Alpha virt. eigenvalues --    1.48592   1.49458   1.50209   1.51028   1.52596
 Alpha virt. eigenvalues --    1.53716   1.54158   1.55101   1.56142   1.56885
 Alpha virt. eigenvalues --    1.58209   1.58689   1.59275   1.59453   1.60597
 Alpha virt. eigenvalues --    1.62027   1.62724   1.64028   1.65079   1.65478
 Alpha virt. eigenvalues --    1.67737   1.68317   1.68814   1.69672   1.71288
 Alpha virt. eigenvalues --    1.71755   1.72538   1.73907   1.74818   1.75895
 Alpha virt. eigenvalues --    1.76675   1.77535   1.78129   1.78951   1.79586
 Alpha virt. eigenvalues --    1.81141   1.81536   1.83328   1.83857   1.85819
 Alpha virt. eigenvalues --    1.86597   1.88543   1.89718   1.91002   1.91328
 Alpha virt. eigenvalues --    1.95036   1.96091   1.97408   1.98542   1.99056
 Alpha virt. eigenvalues --    2.00856   2.03148   2.04221   2.05838   2.08017
 Alpha virt. eigenvalues --    2.10393   2.11475   2.12851   2.13734   2.15731
 Alpha virt. eigenvalues --    2.16983   2.18750   2.19242   2.20348   2.22171
 Alpha virt. eigenvalues --    2.23019   2.24321   2.25002   2.26762   2.29789
 Alpha virt. eigenvalues --    2.32853   2.34137   2.35931   2.36854   2.38712
 Alpha virt. eigenvalues --    2.41365   2.42650   2.43085   2.43904   2.44944
 Alpha virt. eigenvalues --    2.46938   2.48131   2.48383   2.49014   2.49615
 Alpha virt. eigenvalues --    2.50313   2.51061   2.51918   2.52530   2.53005
 Alpha virt. eigenvalues --    2.53822   2.54238   2.55153   2.56215   2.56522
 Alpha virt. eigenvalues --    2.57161   2.58578   2.61412   2.62185   2.63482
 Alpha virt. eigenvalues --    2.64339   2.64668   2.66583   2.68069   2.68735
 Alpha virt. eigenvalues --    2.70753   2.73606   2.74101   2.75498   2.76261
 Alpha virt. eigenvalues --    2.76326   2.78696   2.79460   2.80644   2.81061
 Alpha virt. eigenvalues --    2.82053   2.82618   2.84327   2.88666   2.93530
 Alpha virt. eigenvalues --    2.94412   2.94588   2.97518   2.97641   3.00257
 Alpha virt. eigenvalues --    3.01200   3.03338   3.04249   3.08626   3.09566
 Alpha virt. eigenvalues --    3.11073   3.12818   3.15288   3.18322   3.18647
 Alpha virt. eigenvalues --    3.25627   3.27435   3.30609   3.32622   3.39719
 Alpha virt. eigenvalues --    3.43109   3.46599   3.52347   3.52891   3.68487
 Alpha virt. eigenvalues --    3.69494   3.71306   3.73833   3.74786   3.74945
 Alpha virt. eigenvalues --    3.75945   3.76703   3.78542   3.79117   3.79882
 Alpha virt. eigenvalues --    3.80988   3.82836   3.84605   3.87992   3.90043
 Alpha virt. eigenvalues --    3.92424   3.96332   3.97810   4.02300   4.04419
 Alpha virt. eigenvalues --    4.16146   4.23444   4.30876   4.31883   4.36470
 Alpha virt. eigenvalues --    4.39007   4.61778   4.96056   5.09852   5.19017
 Alpha virt. eigenvalues --    5.53084  23.71549  23.72820  23.80026  23.82525
 Alpha virt. eigenvalues --   23.82910  23.83357  23.84929  23.86073  23.95201
 Alpha virt. eigenvalues --   24.01345  24.21206  35.31422  35.46430  35.76135
          Condensed to atoms (all electrons):
               1          2          3          4          5          6
     1  N    7.281894   0.298302  -0.286684   0.277597  -0.370140   0.101882
     2  C    0.298302   8.326073  -0.099793  -0.544551   0.304676  -1.567693
     3  N   -0.286684  -0.099793   7.941831  -0.406941  -0.083560  -0.279356
     4  C    0.277597  -0.544551  -0.406941   9.719203   0.472337  -0.897331
     5  N   -0.370140   0.304676  -0.083560   0.472337   7.792535  -0.153263
     6  C    0.101882  -1.567693  -0.279356  -0.897331  -0.153263   8.584843
     7  C   -0.149776  -1.540115  -0.279578  -1.023540  -0.370199   0.681591
     8  C    0.058508   0.403627  -0.225140   0.437202   0.002894  -0.934406
     9  C   -0.026727  -0.039683   0.035811  -0.257635   0.060161   0.054578
    10  C   -0.030457   0.036502   0.139189  -0.200001   0.006526  -0.008947
    11  C   -0.161066   0.097382   0.199167  -1.621359  -1.089089   0.162114
    12  C    0.079463  -0.022854  -0.079292   0.370196  -0.013296  -0.002507
    13  C    0.051969  -0.010965   0.039828  -0.031035  -0.091585  -0.000077
    14  C    0.117513  -0.047373  -0.110730   0.204531   0.002108  -0.040129
    15  H   -0.023379  -0.028218   0.003469  -0.001616   0.012293   0.382894
    16  H    0.010368  -0.060979   0.017364   0.001908  -0.008480   0.461806
    17  H    0.013373  -0.079055   0.012838   0.008481  -0.008665   0.467954
    18  H   -0.002849  -0.050780  -0.006831  -0.010844   0.000552  -0.037252
    19  H    0.000085   0.006499   0.024309  -0.003555   0.000745   0.024747
    20  H   -0.007883   0.020338   0.007375  -0.007392   0.002857  -0.083802
    21  H    0.003084  -0.018734  -0.070608   0.037664  -0.005541   0.001614
    22  H    0.000503   0.001677   0.026051   0.032822  -0.000305   0.002430
    23  H   -0.004279   0.035308   0.007397  -0.067652   0.003829  -0.008221
    24  H   -0.000054   0.015453   0.010206   0.020582   0.002474  -0.017770
    25  H    0.006213  -0.001935  -0.020654   0.023523  -0.014366   0.007175
    26  H    0.001017  -0.017590  -0.006806  -0.002464  -0.000850   0.005377
    27  H   -0.000589  -0.000438  -0.000082  -0.028435  -0.033102   0.000372
    28  H    0.002683   0.000850  -0.003171   0.031509   0.046385  -0.000142
    29  H   -0.000210  -0.004054  -0.005255  -0.007797  -0.021580  -0.000471
    30  H    0.010264  -0.002110  -0.001628  -0.008604  -0.055548   0.001599
    31  H   -0.004474  -0.000222  -0.000462   0.008997   0.039668  -0.000597
    32  H    0.001111  -0.009961  -0.002399   0.010475  -0.015974  -0.001864
    33  H   -0.002699  -0.002788   0.003660   0.006306   0.021522  -0.000377
    34  H    0.012324   0.002424  -0.010081   0.012194  -0.042610  -0.004086
    35  H   -0.008052   0.004700   0.001022  -0.012772   0.011205   0.001346
               7          8          9         10         11         12
     1  N   -0.149776   0.058508  -0.026727  -0.030457  -0.161066   0.079463
     2  C   -1.540115   0.403627  -0.039683   0.036502   0.097382  -0.022854
     3  N   -0.279578  -0.225140   0.035811   0.139189   0.199167  -0.079292
     4  C   -1.023540   0.437202  -0.257635  -0.200001  -1.621359   0.370196
     5  N   -0.370199   0.002894   0.060161   0.006526  -1.089089  -0.013296
     6  C    0.681591  -0.934406   0.054578  -0.008947   0.162114  -0.002507
     7  C   10.877964  -0.671753  -0.085932  -0.604823   0.107789  -0.059887
     8  C   -0.671753   6.958861  -0.438610  -0.139034  -0.107421   0.019558
     9  C   -0.085932  -0.438610   6.111730  -0.277597   0.063582  -0.014316
    10  C   -0.604823  -0.139034  -0.277597   6.312238   0.016020  -0.003981
    11  C    0.107789  -0.107421   0.063582   0.016020  10.572141  -0.651642
    12  C   -0.059887   0.019558  -0.014316  -0.003981  -0.651642   5.838211
    13  C   -0.025401  -0.004457  -0.011387   0.010397  -0.070923  -0.257170
    14  C   -0.000085   0.015960   0.001760  -0.020830  -0.822586   0.007778
    15  H   -0.007941   0.036946  -0.000595  -0.002401   0.000886  -0.000250
    16  H   -0.023504  -0.055762   0.001625  -0.007374  -0.000341   0.000245
    17  H   -0.004667  -0.061674  -0.012536   0.003452  -0.000799   0.000186
    18  H    0.015215   0.431198   0.032478  -0.025773   0.000281  -0.000041
    19  H   -0.036557   0.379470  -0.013893  -0.000228   0.000022   0.000034
    20  H   -0.098136   0.482129  -0.016522   0.034620   0.001457  -0.000373
    21  H    0.121247   0.012599   0.332756  -0.041709  -0.000099  -0.000137
    22  H   -0.118924  -0.043909   0.458257   0.008623  -0.000370   0.000122
    23  H   -0.028619   0.005005   0.407392   0.023669  -0.001896  -0.000216
    24  H   -0.134842   0.070817  -0.006715   0.408445   0.000724  -0.000018
    25  H    0.041905  -0.043369  -0.020772   0.407398  -0.007329   0.002185
    26  H   -0.053399  -0.001696   0.037487   0.414513  -0.000304   0.000519
    27  H   -0.003180  -0.000922   0.001123  -0.000415   0.109076   0.344748
    28  H   -0.000021   0.000251  -0.000225  -0.000222  -0.208129   0.493842
    29  H   -0.002693   0.000002  -0.001233   0.000695   0.021370   0.398193
    30  H    0.000244  -0.000090   0.000131  -0.000076   0.106144   0.023772
    31  H   -0.000086   0.000097   0.000020  -0.000026  -0.129692  -0.019715
    32  H    0.000982   0.000088  -0.000173  -0.000151  -0.014352  -0.026649
    33  H    0.000524  -0.000088  -0.000075   0.000210  -0.133038   0.043711
    34  H   -0.000816   0.000549  -0.000090   0.000252   0.073456  -0.031719
    35  H   -0.000066  -0.000071  -0.000006   0.000114  -0.074911  -0.002907
              13         14         15         16         17         18
     1  N    0.051969   0.117513  -0.023379   0.010368   0.013373  -0.002849
     2  C   -0.010965  -0.047373  -0.028218  -0.060979  -0.079055  -0.050780
     3  N    0.039828  -0.110730   0.003469   0.017364   0.012838  -0.006831
     4  C   -0.031035   0.204531  -0.001616   0.001908   0.008481  -0.010844
     5  N   -0.091585   0.002108   0.012293  -0.008480  -0.008665   0.000552
     6  C   -0.000077  -0.040129   0.382894   0.461806   0.467954  -0.037252
     7  C   -0.025401  -0.000085  -0.007941  -0.023504  -0.004667   0.015215
     8  C   -0.004457   0.015960   0.036946  -0.055762  -0.061674   0.431198
     9  C   -0.011387   0.001760  -0.000595   0.001625  -0.012536   0.032478
    10  C    0.010397  -0.020830  -0.002401  -0.007374   0.003452  -0.025773
    11  C   -0.070923  -0.822586   0.000886  -0.000341  -0.000799   0.000281
    12  C   -0.257170   0.007778  -0.000250   0.000245   0.000186  -0.000041
    13  C    5.981481  -0.286925  -0.000182   0.000203  -0.000228  -0.000180
    14  C   -0.286925   6.221257  -0.000252  -0.000483   0.000277  -0.000104
    15  H   -0.000182  -0.000252   0.492620  -0.023810  -0.024101   0.004081
    16  H    0.000203  -0.000483  -0.023810   0.519865  -0.022011  -0.004823
    17  H   -0.000228   0.000277  -0.024101  -0.022011   0.519742  -0.012596
    18  H   -0.000180  -0.000104   0.004081  -0.004823  -0.012596   0.526414
    19  H   -0.000005  -0.000012  -0.000559   0.003689   0.003931  -0.026941
    20  H    0.000211  -0.000230   0.004410  -0.012452  -0.008369  -0.016080
    21  H    0.000439   0.000143  -0.000003   0.000046  -0.000013  -0.000567
    22  H    0.000056   0.000075  -0.000002  -0.000064   0.000107   0.000353
    23  H    0.000076  -0.000218   0.000006   0.000031  -0.000736   0.000084
    24  H   -0.000009   0.000047   0.000017   0.000236  -0.000084  -0.001255
    25  H    0.000350   0.000139  -0.000001   0.000083   0.000084   0.000493
    26  H    0.000066  -0.000178  -0.000002  -0.000044  -0.000001  -0.000217
    27  H    0.018384  -0.029827   0.000000   0.000000  -0.000001   0.000000
    28  H   -0.013152   0.011620   0.000000   0.000000   0.000000   0.000000
    29  H   -0.023389   0.016659   0.000000  -0.000001   0.000000   0.000000
    30  H    0.331288  -0.033387   0.000014  -0.000001  -0.000006   0.000000
    31  H    0.460542   0.013612   0.000000   0.000000   0.000000   0.000000
    32  H    0.402033   0.024799  -0.000002  -0.000001  -0.000003   0.000000
    33  H   -0.004813   0.442222   0.000000   0.000000   0.000000   0.000000
    34  H   -0.033054   0.400742   0.000023  -0.000003   0.000008   0.000000
    35  H    0.058793   0.394613   0.000000   0.000000  -0.000001   0.000000
              19         20         21         22         23         24
     1  N    0.000085  -0.007883   0.003084   0.000503  -0.004279  -0.000054
     2  C    0.006499   0.020338  -0.018734   0.001677   0.035308   0.015453
     3  N    0.024309   0.007375  -0.070608   0.026051   0.007397   0.010206
     4  C   -0.003555  -0.007392   0.037664   0.032822  -0.067652   0.020582
     5  N    0.000745   0.002857  -0.005541  -0.000305   0.003829   0.002474
     6  C    0.024747  -0.083802   0.001614   0.002430  -0.008221  -0.017770
     7  C   -0.036557  -0.098136   0.121247  -0.118924  -0.028619  -0.134842
     8  C    0.379470   0.482129   0.012599  -0.043909   0.005005   0.070817
     9  C   -0.013893  -0.016522   0.332756   0.458257   0.407392  -0.006715
    10  C   -0.000228   0.034620  -0.041709   0.008623   0.023669   0.408445
    11  C    0.000022   0.001457  -0.000099  -0.000370  -0.001896   0.000724
    12  C    0.000034  -0.000373  -0.000137   0.000122  -0.000216  -0.000018
    13  C   -0.000005   0.000211   0.000439   0.000056   0.000076  -0.000009
    14  C   -0.000012  -0.000230   0.000143   0.000075  -0.000218   0.000047
    15  H   -0.000559   0.004410  -0.000003  -0.000002   0.000006   0.000017
    16  H    0.003689  -0.012452   0.000046  -0.000064   0.000031   0.000236
    17  H    0.003931  -0.008369  -0.000013   0.000107  -0.000736  -0.000084
    18  H   -0.026941  -0.016080  -0.000567   0.000353   0.000084  -0.001255
    19  H    0.469065  -0.026167   0.000095   0.001407   0.000054  -0.002996
    20  H   -0.026167   0.545647  -0.000195   0.000068   0.004990   0.001663
    21  H    0.000095  -0.000195   0.479742  -0.023071  -0.022429  -0.000300
    22  H    0.001407   0.000068  -0.023071   0.489241  -0.022873   0.001024
    23  H    0.000054   0.004990  -0.022429  -0.022873   0.499774  -0.000355
    24  H   -0.002996   0.001663  -0.000300   0.001024  -0.000355   0.504142
    25  H   -0.000185  -0.000517   0.000797  -0.000125  -0.000324  -0.023682
    26  H    0.000885  -0.000314   0.000043   0.000442   0.000624  -0.025320
    27  H    0.000000   0.000001  -0.000003   0.000001  -0.000003   0.000001
    28  H    0.000000   0.000000   0.000004   0.000000   0.000000   0.000000
    29  H    0.000000   0.000000   0.000024   0.000002  -0.000002   0.000001
    30  H    0.000000   0.000000  -0.000001   0.000000   0.000000   0.000000
    31  H    0.000000   0.000000   0.000000   0.000000   0.000000   0.000000
    32  H    0.000000  -0.000001  -0.000002   0.000000   0.000006   0.000000
    33  H    0.000000   0.000000   0.000000   0.000000   0.000000   0.000000
[...]
 5407,-0.11102017,-0.07277234,0.09180012,-0.00085048,-0.00020943,-0.002
 47299,0.00000105,-0.00000480,-0.00000344,0.00000644,-0.00001177,-0.000
 00116,0.00000473,-0.00000654,-0.00000309,-0.00000242,-0.00000007,-0.00
 000048,0.00000605,-0.00000259,0.00000410,-0.00000276,-0.00000161,0.000
 00011,-0.00001316,0.00000372,-0.00000396,0.00000746,0.00000218,-0.0000
 0768,-0.00000353,-0.00000170,0.00000177,0.00000843,0.00000069,-0.00000
 018,-0.00000007,0.00000177,-0.00000271,-0.00000140,-0.00000417,0.00000
 446,0.00001073,0.00017887,0.00006690,0.00000130,-0.00010420,0.00005362
 ,0.00006736,0.00000656,0.00013445,-0.00054337,0.00094557,-0.00105324,-
 0.01276924,-0.01744545,0.02014619,0.11659929,0.00033593,-0.00031778,-0
 .00002239,0.00004427,0.00008420,0.00000763,0.00007632,-0.00002043,-0.0
 0000837,0.00020776,-0.00002203,0.00011075,-0.00003526,0.00017099,-0.00
 001615,0.00000535,0.00000205,-0.00000003,-0.00002877,0.00000321,-0.000
 00186,0.00000362,0.00000189,-0.00000273,0.00000434,-0.00000340,0.00000
 512,0.00000820,0.00000012,-0.00000133,0.00182037,0.00015316,-0.0028096
 1,0.00047198,0.00058186,-0.00077912,-0.07263296,-0.12933301,0.10247107
 ,0.00021679,0.00061225,-0.00049730,-0.00000152,-0.00000112,0.00000074,
 0.00000138,-0.00000402,-0.00000050,0.00000485,-0.00000568,-0.00000230,
 -0.00000086,0.00000015,-0.00000117,0.00000235,0.00000021,0.00000119,-0
 .00000181,-0.00000072,0.00000031,-0.00000193,0.00000420,-0.00000088,0.
 00000165,0.00000152,-0.00000400,0.00000014,-0.00000163,0.00000107,0.00
 000326,0.00000174,0.00000159,-0.00000032,0.00000026,-0.00000104,-0.000
 00059,-0.00000067,0.00000151,0.00013573,0.00008062,0.00011413,0.000058
 92,-0.00000509,-0.00000903,-0.00006903,0.00031615,-0.00007885,-0.01511
 162,-0.01447896,0.02159051,0.00509731,0.00602692,-0.00867497,0.0796671
 1,0.13546868,-0.00034230,0.00028656,0.00015231,0.00004612,0.00004111,-
 0.00014006,-0.00014762,-0.00000586,-0.00010384,-0.00046841,-0.00013384
 ,0.00025273,0.00177420,-0.00062166,0.00189108,-0.00001099,-0.00000724,
 0.00000211,0.00000557,0.00001514,-0.00001131,-0.00000717,-0.00000376,-
 0.00000086,0.00000231,0.00000358,-0.00000180,-0.00000181,-0.00000055,0
 .00000222,0.01562508,0.01614013,-0.02134785,0.00086297,0.00148632,0.00
 118627,0.08907565,0.10083678,-0.17297302,-0.00411175,-0.00155084,-0.00
 472785,0.00000356,-0.00000253,-0.00000154,-0.00000063,0.00000090,0.000
 00192,-0.00000412,0.00000043,-0.00000188,0.00000050,-0.00000030,0.0000
 0061,-0.00000208,0.00000103,-0.00000116,0.00000062,-0.00000031,0.00000
 051,0.00000361,-0.00000273,0.00000336,0.00000044,-0.00000066,0.0000009
 0,-0.00000058,0.00000079,0.00000002,0.00000068,-0.00000155,-0.00000066
 ,0.,0.00000089,-0.00000116,-0.00000107,-0.00000217,0.00000058,-0.00025
 387,-0.00002985,0.00037841,-0.00003134,-0.00005016,-0.00001903,-0.0003
 2179,-0.00091610,0.00008551,-0.00559208,-0.00524991,0.00699397,-0.0000
 1636,0.00008318,-0.00119352,-0.09675700,-0.11121360,0.19047703,0.00032
 670,-0.00107614,-0.00036326,-0.00050428,-0.00023325,-0.00005097,-0.000
 83416,0.00066573,-0.00005908,0.00116615,0.00053512,0.00081149,-0.00228
 170,-0.00226447,0.00285170,-0.00004254,-0.00001208,-0.00004014,0.00031
 444,0.00015625,-0.00006091,-0.00009684,-0.00005499,0.00002361,-0.00005
 583,-0.00001237,-0.00003258,-0.00006289,0.00000662,0.00001611,-0.01406
 738,0.00645828,-0.00114596,0.00020458,0.00106340,-0.00055300,0.0001490
 6,0.00053333,-0.00100581,-0.29060281,0.08345875,0.02315874,0.00000212,
 0.00001840,0.00000949,-0.00002949,0.00005535,0.00000896,-0.00002672,0.
 00003320,0.00001734,0.00001126,-0.00000269,0.00000448,-0.00003614,0.00
 001878,-0.00002052,0.00001552,0.00000608,0.00000271,0.00000588,-0.0000
 0271,-0.00000171,-0.00002806,-0.00000722,0.00002542,0.00001050,0.00000
 775,-0.00000559,-0.00003306,-0.00000959,-0.00000796,0.00000406,-0.0000
 0145,0.00000908,0.00000599,0.00001435,-0.00001332,0.00000402,-0.000044
 51,0.00007303,0.00051019,-0.00049268,-0.00004965,0.00036523,-0.0000862
 9,0.00001995,0.00002093,-0.00007406,0.00001330,0.00073010,-0.00012318,
 0.00031950,0.00029477,-0.00021321,-0.00002456,0.31455728,0.00107454,-0
 .00026859,-0.00055710,-0.00083114,0.00006127,-0.00018369,-0.00017053,0
 .00079564,-0.00007009,0.00034499,0.00023273,0.00056062,-0.00322469,-0.
 00262492,0.00274713,0.00002206,0.00001183,-0.00004336,0.00003744,0.000
 09097,0.00000882,-0.00003128,-0.00001496,0.00000599,-0.00000877,-0.000
 00462,-0.00000420,0.00000164,-0.00000558,0.00000510,-0.01678458,0.0044
 6401,0.00093908,-0.00045673,0.00055355,-0.00018674,0.00008197,0.000345
 59,-0.00054983,0.08609359,-0.07579591,-0.00791700,-0.00000620,0.000013
 91,0.00000925,-0.00000751,0.00001498,0.00000332,0.00000529,-0.00000457
 ,0.00000006,0.00000237,-0.00000130,0.00000146,-0.00001002,0.00000526,-
 0.00000640,0.00000276,0.00000057,0.00000086,0.00000095,0.00000043,-0.0
 0000059,-0.00000415,-0.00000112,0.00000369,0.00000170,0.00000082,-0.00
 000177,-0.00000706,0.00000484,-0.00000113,0.00000104,-0.00000139,0.000
 00267,-0.00000029,0.00000554,-0.00000628,-0.00000834,-0.00004866,-0.00
 002953,-0.00015241,-0.00053928,0.00019620,0.00015991,0.00028271,-0.000
 10090,0.00010032,0.00001759,0.00006254,0.00003380,0.00013958,0.0001436
 8,-0.00003320,-0.00004343,-0.00023917,-0.09158243,0.07997950,0.0000709
 5,0.00056717,0.00017931,0.00026674,0.00029645,-0.00002160,0.00089924,-
 0.00049624,0.00014301,-0.00026887,-0.00043867,-0.00076204,0.00375252,0
 .00272700,-0.00230877,0.00002122,0.00000819,0.00002051,-0.00023261,-0.
 00015466,0.00009327,0.00008869,0.00004785,-0.00002152,0.00003489,0.000
 00745,0.00002487,0.00004735,-0.00000521,-0.00001353,0.01978255,-0.0087
 6947,-0.00210460,-0.00015692,-0.00096150,0.00051281,0.00028415,-0.0006
 0126,0.00062904,0.02069174,-0.00681815,-0.04909300,-0.00000133,-0.0000
 1385,-0.00000588,0.00001938,-0.00003462,-0.00000447,0.00001841,-0.0000
 2121,-0.00000953,-0.00000803,0.00000235,-0.00000112,0.00003161,-0.0000
 1810,0.00001977,-0.00001109,-0.00000504,-0.00000220,-0.00000545,0.0000
 0152,0.00000110,0.00002089,0.00000480,-0.00001781,-0.00000719,-0.00000
 556,0.00000335,0.00002569,0.00000785,0.00000713,-0.00000312,0.00000226
 ,-0.00000573,-0.00000383,-0.00001059,0.00001049,-0.00006418,0.00009210
 ,0.00001864,-0.00021572,0.00022324,0.00022669,-0.00019995,-0.00014097,
 -0.00010034,0.00000430,0.00001259,-0.00005994,-0.00023634,0.00031641,-
 0.00052187,-0.00019651,0.00000785,0.00031782,-0.02588736,0.00607512,0.
 05074559,0.00000410,0.00018704,-0.00005986,0.00009279,0.00003854,0.000
 00824,0.00017855,-0.00015576,0.00000825,-0.00008748,-0.00010919,-0.000
 24481,0.00201430,0.00045376,-0.00007366,0.00000424,0.00000334,0.000000
 76,-0.00007220,-0.00003311,0.00000765,0.00002120,0.00001146,-0.0000064
 1,0.00001417,0.00000086,0.00000729,0.00001540,0.00000075,-0.00000664,0
 .00520237,0.00121182,0.01586361,0.00038054,0.00071201,0.00012210,-0.00
 108161,-0.00161250,0.00205995,-0.10447512,-0.01148323,-0.11222700,0.00
 000079,-0.00000691,-0.00000227,0.00000352,-0.00001143,-0.00000148,0.00
 000692,-0.00000865,-0.00000385,-0.00000083,0.00000088,-0.00000183,0.00
 000876,-0.00000353,0.00000449,-0.00000465,-0.00000138,0.,-0.00000156,0
 .00000054,0.,0.00000605,0.00000232,-0.00000659,-0.00000231,-0.00000144
 ,0.00000103,0.00000953,-0.00000037,0.00000242,-0.00000230,-0.00000022,
 -0.00000247,-0.00000007,-0.00000382,0.00000463,0.00002366,0.00003775,-
 0.00013278,0.00000517,-0.00006522,-0.00009901,-0.00000056,0.00019206,0
 .00002077,-0.00014541,-0.00006689,-0.00011927,0.00028131,-0.00013728,0
 .00014110,0.00066233,-0.00013673,0.00075623,-0.01202276,-0.00395856,-0
 .02671142,0.10969062,0.00008710,-0.00007065,-0.00008663,0.00006297,0.0
 0004998,0.00010218,-0.00001738,-0.00004786,0.00004015,-0.00008241,0.00
 002815,-0.00023426,0.00093430,0.00037769,-0.00091799,-0.00000189,-0.00
 000285,0.00000667,-0.00001683,0.00000335,0.00001376,0.00000514,0.00000
 313,-0.00000156,-0.00000098,-0.00000083,0.00000123,0.00000516,-0.00000
 123,-0.00000259,0.00925632,0.00010864,0.01621392,0.00083829,0.00101058
 ,0.00071531,-0.00206037,-0.00175808,0.00221786,-0.01271685,-0.04980196
 ,-0.02441162,-0.00000164,-0.00000024,-0.00000169,0.00000480,-0.0000068
 8,-0.00000398,0.00000033,-0.00000013,-0.00000199,-0.00000111,0.0000009
 9,0.00000163,0.00000185,-0.00000114,0.00000137,-0.00000051,-0.00000049
 ,-0.00000021,-0.00000035,-0.00000014,0.00000059,0.00000056,0.00000006,
 -0.00000008,-0.00000033,-0.00000001,-0.00000061,0.00000261,0.00000087,
 0.00000030,-0.00000157,0.00000105,-0.00000019,0.00000007,-0.00000142,0
 .00000204,-0.00032332,-0.00026322,-0.00016402,0.00005677,-0.00005933,0
 .00003823,-0.00001592,0.00019318,-0.00022586,0.00002007,0.00018466,0.0
 0022237,-0.00018616,-0.00004349,-0.00023939,0.00024008,0.00042608,0.00
 111143,0.00416235,0.00008611,0.01000314,0.01471752,0.05048751,0.000462
 29,-0.00042615,-0.00007087,-0.00000193,0.00006681,-0.00010081,0.000163
 69,0.00002923,-0.00007761,0.00050405,-0.00000320,0.00020675,-0.0015194
 7,-0.00026212,0.00171480,0.00001271,0.00000410,0.00000313,-0.00002236,
 -0.00000550,-0.00000769,0.00000214,0.00000096,-0.00000517,0.00000604,0
 .00000134,0.00000211,0.00000545,-0.00000120,-0.00000044,-0.01150273,-0
 .00265614,-0.02125906,-0.00048919,-0.00148028,0.00070109,0.00367449,0.
 00330204,-0.00212925,-0.10985118,-0.02282416,-0.25876330,-0.00000199,0
 .00000369,0.00000066,0.00000478,-0.00000343,0.00000112,0.00000230,-0.0
 0000569,-0.00000106,0.00000055,-0.00000018,0.00000311,0.00000090,-0.00
 000054,0.00000241,-0.00000098,-0.00000015,0.,-0.00000025,-0.00000054,0
 .00000055,0.00000279,0.00000064,-0.00000198,-0.00000107,0.00000013,0.0
 0000052,0.00000121,0.00000215,0.00000051,0.00000086,0.00000203,0.00000
 052,0.00000023,0.00000011,0.00000025,0.00022973,0.00069968,0.00064095,
 0.00005445,0.00003701,0.00000767,0.00027879,-0.00007130,0.00025836,0.0
 0007059,-0.00004702,0.00032589,-0.00009134,0.00000535,0.00032578,-0.00
 064235,0.00004378,-0.00143505,0.00221572,0.00059450,0.00396293,0.11953
 037,0.02276215,0.28215203,-0.00036341,0.00008949,0.00034012,-0.0004048
 4,0.00026109,-0.00001345,0.00034497,0.00020219,0.00011708,-0.00013492,
 -0.00004501,-0.00009830,0.00107104,-0.00074534,-0.00092487,0.00003701,
 0.00000402,0.00002457,-0.00012755,-0.00000297,0.00002203,0.00002472,0.
 00001386,-0.00000792,0.00002276,0.00000243,0.00001248,0.00003320,-0.00
 000855,-0.00000589,-0.00194118,-0.01599900,-0.00442326,-0.00150561,-0.
 00112701,0.00249492,0.00013416,0.00063701,-0.00087277,-0.04631196,-0.0
 0051072,-0.00131545,-0.00001188,0.00000485,0.00000507,0.00001248,-0.00
 002318,-0.00000726,0.00001511,-0.00001355,-0.00000674,-0.00000283,0.00
 000065,-0.00000106,0.00001321,-0.00000404,0.00000613,-0.00000768,-0.00
 000209,-0.00000099,-0.00000164,0.00000224,0.00000089,0.00001129,0.0000
 0189,-0.00001046,-0.00000479,-0.00000355,0.00000311,0.00001082,0.00000
 939,0.00000437,-0.00000180,-0.00000137,-0.00000177,-0.00000271,-0.0000
 0249,0.00000114,0.00004205,0.00033062,0.00017437,0.00033133,-0.0001976
 2,-0.00004704,0.00034235,-0.00105003,0.00005897,0.00026656,0.00019231,
 0.00017943,0.00001698,0.00009115,0.00004913,-0.00014806,0.00006696,-0.
 00006201,0.00202586,0.02931352,0.00814960,-0.00072949,-0.01496865,-0.0
 0309930,0.04694447,0.00157699,0.00042158,-0.00125307,-0.00073030,0.000
 41091,-0.00009181,0.00039051,0.00055421,0.00025806,0.00009216,0.000004
 77,-0.00003784,0.00075478,-0.00084224,-0.00020077,0.00001575,0.0000236
 6,-0.00002719,-0.00010184,0.00002442,0.00007720,0.00001991,0.00001238,
 -0.00000457,0.00001136,-0.00000086,0.00000874,0.00003366,-0.00001105,-
 0.00000541,0.00065608,-0.01767638,-0.00563582,-0.00233615,-0.00075881,
 0.00371765,0.00012152,0.00056596,-0.00121840,-0.00343776,-0.30468102,-
 0.07054090,-0.00000701,0.00001087,0.00000088,0.00000637,-0.00001058,-0
 .00000181,0.00001508,-0.00001443,-0.00000777,-0.00000239,0.00000015,-0
 .00000048,0.00000942,-0.00000389,0.00000418,-0.00000516,-0.00000110,-0
 .00000087,-0.00000181,0.00000101,-0.00000019,0.00000769,0.00000111,-0.
 00000592,-0.00000352,-0.00000186,0.00000169,0.00000447,0.00001523,0.00
 000396,-0.00000027,-0.00000247,0.00000295,-0.00000165,0.00000342,-0.00
 000433,0.00003740,0.00021502,-0.00009544,0.00005625,0.00037074,-0.0000
 1233,-0.00008160,-0.00115362,-0.00029051,0.00025635,0.00039065,0.00084
 615,-0.00004895,0.00001097,0.00005565,-0.00011405,0.00030170,0.0000245
 2,-0.00090039,-0.00775309,-0.00190823,0.00022561,-0.00090207,0.0002319
 2,0.00348147,0.33047471,0.00064755,-0.00001694,-0.00075717,0.00000992,
 -0.00019344,-0.00007433,-0.00019136,0.00000117,0.00003559,0.00024210,0
 .00003750,0.00021637,-0.00117689,-0.00036575,0.00069091,0.00000547,0.0
 0001483,-0.00004251,0.00003315,0.00001223,-0.00000700,-0.00001187,-0.0
 0000749,0.00000300,-0.00000791,-0.00000433,-0.00000457,-0.00000688,0.0
 0000435,0.00000411,-0.00057705,0.02327102,0.00520816,0.00235663,0.0019
 6575,-0.00297539,-0.00012622,0.00053680,0.00168056,-0.00187624,-0.0734
 6480,-0.06761084,0.00000457,-0.00000473,-0.00000120,-0.00000838,0.0000
 0417,0.00000368,0.00000475,-0.00000555,0.00000015,0.00000084,-0.000001
 17,-0.00000042,-0.00000484,0.00000326,-0.00000309,0.00000205,0.0000011
 8,-0.00000014,0.00000025,-0.00000038,-0.00000032,-0.00000359,0.0000003
 0,0.00000372,0.00000127,0.00000025,-0.00000014,-0.00000197,-0.00000244
 ,-0.00000286,0.00000152,-0.00000081,-0.00000097,-0.00000040,0.00000063
 ,-0.00000032,0.00018188,0.00011684,0.00018056,-0.00001383,-0.00018223,
 -0.00014324,0.00030851,0.00134997,0.00050608,0.00004972,-0.00032604,-0
 .00022538,-0.00005039,0.00000169,-0.00007048,0.00005032,-0.00023201,0.
 00021324,-0.00025827,-0.00146234,-0.00186236,0.00116047,-0.02716163,-0
 .00645883,-0.00074488,0.07611014,0.07149546\\-0.00003789,-0.00000063,-
 0.00000662,0.00005155,0.00000313,-0.00000602,-0.00003259,0.00000404,0.
 00001536,-0.00001051,-0.00001016,-0.00000199,0.00001932,0.00000776,0.0
 0000088,-0.00000276,0.00000251,0.00000039,0.00002487,0.00000370,-0.000
 00445,-0.00000981,0.00000555,-0.00000584,-0.00000430,0.00000272,-0.000
 00221,0.00000301,-0.00000344,0.00000258,-0.00000562,-0.00000527,0.0000
 0016,-0.00000567,-0.00000695,0.00000769,-0.00000008,-0.00000762,0.0000
 0207,-0.00000017,-0.00001045,0.,0.00000398,0.00000191,-0.00000190,0.00
 000758,-0.00000099,-0.00000338,0.00000042,0.00000197,0.00000057,0.0000
 0235,0.00000098,-0.00000175,0.00000132,0.00000327,-0.00000101,0.000002
 01,0.00000108,-0.00000095,-0.00000021,0.00000242,0.00000286,0.00000008
 ,0.00000643,-0.00000178,0.00000547,0.00000748,0.00000200,-0.00000402,0
 .00000677,0.00000525,-0.00000136,0.00000352,-0.00000257,-0.00000254,0.
 00000281,0.00000235,-0.00000133,-0.00000366,-0.00000182,-0.00000082,-0
 .00000408,0.00000168,-0.00000496,0.00000063,0.00000149,-0.00000055,-0.
 00000065,-0.00000147,0.00000189,-0.00000133,0.00000090,-0.00000059,-0.
 00000341,0.00000092,-0.00000004,-0.00000528,-0.00000115,-0.00000038,-0
 .00000299,-0.00000083,0.00000233,-0.00000178,-0.00000143\\\@


                                                                                    A
                                                                                  AA
                                                                                 AAA
                                                                                AAAA
                                                                               AAAAA
                                                                              AAAAAA   KKKKKKKK
                                                                             AAAAAAA   KKKKKKKK
                                                                            AAAAAAAA   KKKKKKKK
                                       ZZZZZZZZZZZZZZZZZZZZ                AAAA  AAA   KKKKKKKK
                                       ZZZZZZZZZZZZZZZZZZZ                AAAA   AAA   KKKKKKKK          K
                                       ZZZZZZZZZZZZZZZZZZ                AAAA    AAA   KKKKKKKK         KKK
                                       ZZZZZZZZZZZZZZZZZ                AAAA     AAA   KKKKKKKK        KKKKK
                                       ZZZZZZZZZZZZZZZZ                AAAA      AAA   KKKKKKKK       KKKKKKK
                                                ZZZZZZ                AAAA       AAA   KKKKKKKK      KKKKKKK
                                               ZZZZZZ                AAAA        AAA   KKKKKKKK     KKKKKKK
                                              ZZZZZZ                AAAA         AAA   KKKKKKKK    KKKKKKK
                                             ZZZZZZ                AAAA          AAA   KKKKKKKK   KKKKKKK
                                            ZZZZZZ                AAAAAAAAAAAAAAAAAA   KKKKKKKK  KKKKKKK
                                           ZZZZZZ                AAAAAAAAAAAAAAAAAAA   KKKKKKKK KKKKKKK
                                          ZZZZZZ                AAAAAAAAAAAAAAAAAAAA   KKKKKKKKKKKKKKK
                                         ZZZZZZ                AAAAAAAAAAAAAAAAAAAAA   KKKKKKKKKKKKKK
                                        ZZZZZZ                AAAAAA        AAAAAAAA   KKKKKKKKKKKKK
                                       ZZZZZZ                AAAAAA         AAAAAAAA   KKKKKKKKKKKK
                                      ZZZZZZ                AAAAAA          AAAAAAAA   KKKKKKKKKKK
                                     ZZZZZZ                AAAAAA           AAAAAAAA   KKKKKKKKKKKK
                                    ZZZZZZ                AAAAAA            AAAAAAAA   KKKKKKKKKKKKK
                                   ZZZZZZ                AAAAAA             AAAAAAAA   KKKKKKKKKKKKKK
                                  ZZZZZZ                AAAAAA              AAAAAAAA   KKKKKKKKKKKKKKK
                                 ZZZZZZ                AAAAAA               AAAAAAAA   KKKKK KKKKKKKKKK
                                ZZZZZZ                AAAAAA                AAAAAAAA   KKKKK  KKKKKKKKKK
                               ZZZZZZ                AAAAAA                            KKKKK   KKKKKKKKKK
                              ZZZZZZ                AAAAAA                             KKKKK    KKKKKKKKKK
                             ZZZZZZ                                                    KKKKK     KKKKKKKKKK
                            ZZZZZZ                                                     KKKKK      KKKKKKKKKK
                           ZZZZZZ                                                      KKKKK       KKKKKKKKKK
                          ZZZZZZ                                                       KKKKK        KKKKKKKKKK
                         ZZZZZZZZZZZZZZZZZZZZZZZZZZZZZZZZZZZZZZZZ                      KKKKK         KKKKKKKKKK
                        ZZZZZZZZZZZZZZZZZZZZZZZZZZZZZZZZZZZZZZZZZ                      KKKKK          KKKKKKKKKK
                       ZZZZZZZZZZZZZZZZZZZZZZZZZZZZZZZZZZZZZZZZZZ                      KKKKK           KKKKKKKKKK
                       ZZZZZZZZZZZZZZZZZZZZZZZZZZZZZZZZZZZZZZZZZZ                      KKKKK            KKKKKKKKKK
                       ZZZZZZZZZZZZZZZZZZZZZZZZZZZZZZZZZZZZZZZZZZ                      KKKKK             KKKKKKKKKK
                       ZZZZZZZZZZZZZZZZZZZZZZZZZZZZZZZZZZZZZZZZZZ                      KKKKK              KKKKKKKKKK
                       ZZZZZZZZZZZZZZZZZZZZZZZZZZZZZZZZZZZZZZZZZZ                      KKKKK               KKKKKKKKKK
                       ZZZZZZZZZZZZZZZZZZZZZZZZZZZZZZZZZZZZZZZZZZ                      KKKKK                KKKKKKKKKK
                       ZZZZZZZZZZZZZZZZZZZZZZZZZZZZZZZZZZZZZZZZZZ                      KKKKK
                                                                                       KKKKK
                                                                                          (J.P.)
 Job cpu time:       1 days 16 hours  5 minutes 32.3 seconds.
 File lengths (MBytes):  RWF=    674 Int=      0 D2E=      0 Chk=     22 Scr=      1
 Normal termination of Gaussian 09 at Wed Jun  2 12:03:29 2021.
