 Entering Gaussian System, Link 0=g09
 Input=NHC24.gjf
 Output=NHC24.log
 Initial command:
 /usr/local/gqt/g09/l1.exe "/usr/local/gqt/lixogaussian/Gau-7775.inp" -scrdir="/usr/local/gqt/lixogaussian/"
 Entering Link 1 = /usr/local/gqt/g09/l1.exe PID=      7777.
  
 Copyright (c) 1988,1990,1992,1993,1995,1998,2003,2009,2013,
            Gaussian, Inc.  All Rights Reserved.
  
 This is part of the Gaussian(R) 09 program.  It is based on
 the Gaussian(R) 03 system (copyright 2003, Gaussian, Inc.),
 the Gaussian(R) 98 system (copyright 1998, Gaussian, Inc.),
 the Gaussian(R) 94 system (copyright 1995, Gaussian, Inc.),
 the Gaussian 92(TM) system (copyright 1992, Gaussian, Inc.),
 the Gaussian 90(TM) system (copyright 1990, Gaussian, Inc.),
 the Gaussian 88(TM) system (copyright 1988, Gaussian, Inc.),
 the Gaussian 86(TM) system (copyright 1986, Carnegie Mellon
 University), and the Gaussian 82(TM) system (copyright 1983,
 Carnegie Mellon University). Gaussian is a federally registered
 trademark of Gaussian, Inc.
  
 This software contains proprietary and confidential information,
 including trade secrets, belonging to Gaussian, Inc.
  
 This software is provided under written license and may be
 used, copied, transmitted, or stored only in accord with that
 written license.
  
 The following legend is applicable only to US Government
 contracts under FAR:
  
                    RESTRICTED RIGHTS LEGEND
  
 Use, reproduction and disclosure by the US Government is
 subject to restrictions as set forth in subparagraphs (a)
 and (c) of the Commercial Computer Software - Restricted
 Rights clause in FAR 52.227-19.
  
 Gaussian, Inc.
 340 Quinnipiac St., Bldg. 40, Wallingford CT 06492
  
  
 ---------------------------------------------------------------
 Warning -- This program may not be used in any manner that
 competes with the business of Gaussian, Inc. or will provide
 assistance to any competitor of Gaussian, Inc.  The licensee
 of this program is prohibited from giving any competitor of
 Gaussian, Inc. access to this program.  By using this program,
 the user acknowledges that Gaussian, Inc. is engaged in the
 business of creating and licensing software in the field of
 computational chemistry and represents and warrants to the
 licensee that it is not a competitor of Gaussian, Inc. and that
 it will not use this program in any manner prohibited above.
 ---------------------------------------------------------------
  

 Cite this work as:
 Gaussian 09, Revision D.01,
 M. J. Frisch, G. W. Trucks, H. B. Schlegel, G. E. Scuseria, 
 M. A. Robb, J. R. Cheeseman, G. Scalmani, V. Barone, B. Mennucci, 
 G. A. Petersson, H. Nakatsuji, M. Caricato, X. Li, H. P. Hratchian, 
 A. F. Izmaylov, J. Bloino, G. Zheng, J. L. Sonnenberg, M. Hada, 
 M. Ehara, K. Toyota, R. Fukuda, J. Hasegawa, M. Ishida, T. Nakajima, 
 Y. Honda, O. Kitao, H. Nakai, T. Vreven, J. A. Montgomery, Jr., 
 J. E. Peralta, F. Ogliaro, M. Bearpark, J. J. Heyd, E. Brothers, 
 K. N. Kudin, V. N. Staroverov, T. Keith, R. Kobayashi, J. Normand, 
 K. Raghavachari, A. Rendell, J. C. Burant, S. S. Iyengar, J. Tomasi, 
 M. Cossi, N. Rega, J. M. Millam, M. Klene, J. E. Knox, J. B. Cross, 
 V. Bakken, C. Adamo, J. Jaramillo, R. Gomperts, R. E. Stratmann, 
 O. Yazyev, A. J. Austin, R. Cammi, C. Pomelli, J. W. Ochterski, 
 R. L. Martin, K. Morokuma, V. G. Zakrzewski, G. A. Voth, 
 P. Salvador, J. J. Dannenberg, S. Dapprich, A. D. Daniels, 
 O. Farkas, J. B. Foresman, J. V. Ortiz, J. Cioslowski, 
 and D. J. Fox, Gaussian, Inc., Wallingford CT, 2013.
 
 ******************************************
 Gaussian 09:  ES64L-G09RevD.01 24-Apr-2013
                21-Jun-2021 
 ******************************************
 %nprocshared=16
 Will use up to   16 processors via shared memory.
 %mem=25GB
 %chk=NHC24.chk
 ----------------------------------------------------------
 #p opt freq n12sx/6-311+g(d,p) scrf=(iefpcm,solvent=water)
 ----------------------------------------------------------
 1/14=-1,18=20,19=15,26=3,38=1/1,3;
 2/9=110,12=2,17=6,18=5,40=1/2;
 3/5=4,6=6,7=111,11=2,16=1,25=1,30=1,70=2201,71=1,72=1,74=-69/1,2,3;
 4//1;
 5/5=2,38=5,53=1/2;
 6/7=2,8=2,9=2,10=2,28=1/1;
 7//1,2,3,16;
 1/14=-1,18=20,19=15,26=3/3(2);
 2/9=110/2;
 99//99;
 2/9=110/2;
 3/5=4,6=6,7=111,11=2,16=1,25=1,30=1,70=2205,71=1,72=1,74=-69/1,2,3;
 4/5=5,16=3,69=1/1;
 5/5=2,38=5,53=1/2;
 7//1,2,3,16;
 1/14=-1,18=20,19=15,26=3/3(-5);
 2/9=110/2;
 6/7=2,8=2,9=2,10=2,19=2,28=1/1;
 99/9=1/99;
 Leave Link    1 at Mon Jun 21 05:28:28 2021, MaxMem=  3355443200 cpu:         0.7
 (Enter /usr/local/gqt/g09/l101.exe)
 -----
 TITLE
 -----
 Symbolic Z-matrix:
 Charge =  0 Multiplicity = 1
 6                     0.55447  -0.04839   0.05912 
 6                     1.81247  -0.72579  -0.44097 
 6                     1.63577  -1.04698  -1.78406 
 6                     0.2902   -0.6972   -2.2323 
 7                    -0.30389  -0.19086  -1.17399 
 6                     2.99653  -1.00983   0.21153 
 6                     4.01219  -1.62105  -0.51431 
 6                     3.85033  -1.93547  -1.86172 
 6                     2.65757  -1.65099  -2.50731 
 6                    -1.72685   0.23913  -1.29228 
 6                    -2.32044   1.02682  -0.13065 
 6                    -3.72641   1.49397  -0.50121 
 6                    -4.63585   0.31843  -0.8333 
 6                    -4.02815  -0.55303  -1.92382 
 6                    -2.60696  -0.9766   -1.57893 
 6                     0.93286   1.41291   0.30983 
 6                     1.64303   1.7583    1.46029 
 6                     2.09065   3.05431   1.65911 
 6                     1.84477   4.03383   0.7073 
 6                     1.15489   3.69807  -0.44597 
 6                     0.70772   2.3988   -0.6443 
 6                    -0.04933  -0.80861   1.24391 
 6                    -0.14873  -2.19674   1.14063 
 6                    -0.70718  -2.95199   2.15657 
 6                    -1.17596  -2.33274   3.30756 
 6                    -1.08599  -0.95538   3.42103 
 6                    -0.53158  -0.2       2.39615 
 1                     3.14523  -0.7759    1.25492 
 1                     4.94506  -1.85631  -0.02308 
 1                     4.65887  -2.40793  -2.39919 
 1                     2.51374  -1.89854  -3.54894 
 1                    -1.74601   0.88116  -2.17458 
 1                    -2.38751   0.39245   0.75039 
 1                    -1.70451   1.88242   0.12881 
 1                    -4.14182   2.07316   0.32306 
 1                    -3.67076   2.16806  -1.35948 
 1                    -4.78493  -0.28173   0.06758 
 1                    -5.61994   0.67439  -1.13825 
 1                    -4.64454  -1.43584  -2.09408 
 1                    -4.01492   0.00304  -2.86474 
 1                    -2.61089  -1.61746  -0.69426 
 1                    -2.16451  -1.54469  -2.3942 
 1                     1.85529   1.01215   2.21015 
 1                     2.63522   3.29638   2.55981 
 1                     2.19112   5.04468   0.86241 
 1                     0.96077   4.44623  -1.20032 
 1                     0.18363   2.16087  -1.55626 
 1                     0.21578  -2.69242   0.25258 
 1                    -0.77265  -4.02485   2.05105 
 1                    -1.60742  -2.91906   4.10513 
 1                    -1.4534   -0.45847   4.30685 
 1                    -0.49362   0.87154   2.50112 
 
 NAtoms=     52 NQM=       52 NQMF=       0 NMMI=      0 NMMIF=      0
                NMic=       0 NMicF=      0.
                    Isotopes and Nuclear Properties:
 (Nuclear quadrupole moments (NQMom) in fm**2, nuclear magnetic moments (NMagM)
  in nuclear magnetons)

  Atom         1           2           3           4           5           6           7           8           9          10
 IAtWgt=          12          12          12          12          14          12          12          12          12          12
 AtmWgt=  12.0000000  12.0000000  12.0000000  12.0000000  14.0030740  12.0000000  12.0000000  12.0000000  12.0000000  12.0000000
 NucSpn=           0           0           0           0           2           0           0           0           0           0
 AtZEff=   0.0000000   0.0000000   0.0000000   0.0000000   0.0000000   0.0000000   0.0000000   0.0000000   0.0000000   0.0000000
 NQMom=    0.0000000   0.0000000   0.0000000   0.0000000   2.0440000   0.0000000   0.0000000   0.0000000   0.0000000   0.0000000
 NMagM=    0.0000000   0.0000000   0.0000000   0.0000000   0.4037610   0.0000000   0.0000000   0.0000000   0.0000000   0.0000000
 AtZNuc=   6.0000000   6.0000000   6.0000000   6.0000000   7.0000000   6.0000000   6.0000000   6.0000000   6.0000000   6.0000000

  Atom        11          12          13          14          15          16          17          18          19          20
 IAtWgt=          12          12          12          12          12          12          12          12          12          12
 AtmWgt=  12.0000000  12.0000000  12.0000000  12.0000000  12.0000000  12.0000000  12.0000000  12.0000000  12.0000000  12.0000000
 NucSpn=           0           0           0           0           0           0           0           0           0           0
 AtZEff=   0.0000000   0.0000000   0.0000000   0.0000000   0.0000000   0.0000000   0.0000000   0.0000000   0.0000000   0.0000000
 NQMom=    0.0000000   0.0000000   0.0000000   0.0000000   0.0000000   0.0000000   0.0000000   0.0000000   0.0000000   0.0000000
 NMagM=    0.0000000   0.0000000   0.0000000   0.0000000   0.0000000   0.0000000   0.0000000   0.0000000   0.0000000   0.0000000
 AtZNuc=   6.0000000   6.0000000   6.0000000   6.0000000   6.0000000   6.0000000   6.0000000   6.0000000   6.0000000   6.0000000

  Atom        21          22          23          24          25          26          27          28          29          30
 IAtWgt=          12          12          12          12          12          12          12           1           1           1
 AtmWgt=  12.0000000  12.0000000  12.0000000  12.0000000  12.0000000  12.0000000  12.0000000   1.0078250   1.0078250   1.0078250
 NucSpn=           0           0           0           0           0           0           0           1           1           1
 AtZEff=   0.0000000   0.0000000   0.0000000   0.0000000   0.0000000   0.0000000   0.0000000   0.0000000   0.0000000   0.0000000
 NQMom=    0.0000000   0.0000000   0.0000000   0.0000000   0.0000000   0.0000000   0.0000000   0.0000000   0.0000000   0.0000000
 NMagM=    0.0000000   0.0000000   0.0000000   0.0000000   0.0000000   0.0000000   0.0000000   2.7928460   2.7928460   2.7928460
 AtZNuc=   6.0000000   6.0000000   6.0000000   6.0000000   6.0000000   6.0000000   6.0000000   1.0000000   1.0000000   1.0000000

  Atom        31          32          33          34          35          36          37          38          39          40
 IAtWgt=           1           1           1           1           1           1           1           1           1           1
 AtmWgt=   1.0078250   1.0078250   1.0078250   1.0078250   1.0078250   1.0078250   1.0078250   1.0078250   1.0078250   1.0078250
 NucSpn=           1           1           1           1           1           1           1           1           1           1
 AtZEff=   0.0000000   0.0000000   0.0000000   0.0000000   0.0000000   0.0000000   0.0000000   0.0000000   0.0000000   0.0000000
 NQMom=    0.0000000   0.0000000   0.0000000   0.0000000   0.0000000   0.0000000   0.0000000   0.0000000   0.0000000   0.0000000
 NMagM=    2.7928460   2.7928460   2.7928460   2.7928460   2.7928460   2.7928460   2.7928460   2.7928460   2.7928460   2.7928460
 AtZNuc=   1.0000000   1.0000000   1.0000000   1.0000000   1.0000000   1.0000000   1.0000000   1.0000000   1.0000000   1.0000000

  Atom        41          42          43          44          45          46          47          48          49          50
 IAtWgt=           1           1           1           1           1           1           1           1           1           1
 AtmWgt=   1.0078250   1.0078250   1.0078250   1.0078250   1.0078250   1.0078250   1.0078250   1.0078250   1.0078250   1.0078250
 NucSpn=           1           1           1           1           1           1           1           1           1           1
 AtZEff=   0.0000000   0.0000000   0.0000000   0.0000000   0.0000000   0.0000000   0.0000000   0.0000000   0.0000000   0.0000000
 NQMom=    0.0000000   0.0000000   0.0000000   0.0000000   0.0000000   0.0000000   0.0000000   0.0000000   0.0000000   0.0000000
 NMagM=    2.7928460   2.7928460   2.7928460   2.7928460   2.7928460   2.7928460   2.7928460   2.7928460   2.7928460   2.7928460
 AtZNuc=   1.0000000   1.0000000   1.0000000   1.0000000   1.0000000   1.0000000   1.0000000   1.0000000   1.0000000   1.0000000

  Atom        51          52
 IAtWgt=           1           1
 AtmWgt=   1.0078250   1.0078250
 NucSpn=           1           1
 AtZEff=   0.0000000   0.0000000
 NQMom=    0.0000000   0.0000000
 NMagM=    2.7928460   2.7928460
 AtZNuc=   1.0000000   1.0000000
 Leave Link  101 at Mon Jun 21 05:28:29 2021, MaxMem=  3355443200 cpu:         7.1
 (Enter /usr/local/gqt/g09/l103.exe)

 GradGradGradGradGradGradGradGradGradGradGradGradGradGradGradGradGradGrad
 Berny optimization.
 Initialization pass.
                           ----------------------------
                           !    Initial Parameters    !
                           ! (Angstroms and Degrees)  !
 --------------------------                            --------------------------
 ! Name  Definition              Value          Derivative Info.                !
 --------------------------------------------------------------------------------
 ! R1    R(1,2)                  1.5138         estimate D2E/DX2                !
 ! R2    R(1,5)                  1.5092         estimate D2E/DX2                !
 ! R3    R(1,16)                 1.5302         estimate D2E/DX2                !
 ! R4    R(1,22)                 1.5317         estimate D2E/DX2                !
 ! R5    R(2,3)                  1.3922         estimate D2E/DX2                !
 ! R6    R(2,6)                  1.3815         estimate D2E/DX2                !
 ! R7    R(3,4)                  1.4608         estimate D2E/DX2                !
 ! R8    R(3,9)                  1.39           estimate D2E/DX2                !
 ! R9    R(4,5)                  1.315          estimate D2E/DX2                !
 ! R10   R(5,10)                 1.4912         estimate D2E/DX2                !
 ! R11   R(6,7)                  1.39           estimate D2E/DX2                !
 ! R12   R(6,28)                 1.0796         estimate D2E/DX2                !
 ! R13   R(7,8)                  1.393          estimate D2E/DX2                !
 ! R14   R(7,29)                 1.0802         estimate D2E/DX2                !
 ! R15   R(8,9)                  1.3858         estimate D2E/DX2                !
 ! R16   R(8,30)                 1.0797         estimate D2E/DX2                !
 ! R17   R(9,31)                 1.0803         estimate D2E/DX2                !
 ! R18   R(10,11)                1.5239         estimate D2E/DX2                !
 ! R19   R(10,15)                1.528          estimate D2E/DX2                !
 ! R20   R(10,32)                1.0913         estimate D2E/DX2                !
 ! R21   R(11,12)                1.5272         estimate D2E/DX2                !
 ! R22   R(11,33)                1.0877         estimate D2E/DX2                !
 ! R23   R(11,34)                1.0857         estimate D2E/DX2                !
 ! R24   R(12,13)                1.5229         estimate D2E/DX2                !
 ! R25   R(12,35)                1.0897         estimate D2E/DX2                !
 ! R26   R(12,36)                1.0928         estimate D2E/DX2                !
 ! R27   R(13,14)                1.5225         estimate D2E/DX2                !
 ! R28   R(13,37)                1.0927         estimate D2E/DX2                !
 ! R29   R(13,38)                1.09           estimate D2E/DX2                !
 ! R30   R(14,15)                1.5225         estimate D2E/DX2                !
 ! R31   R(14,39)                1.0901         estimate D2E/DX2                !
 ! R32   R(14,40)                1.093          estimate D2E/DX2                !
 ! R33   R(15,41)                1.0924         estimate D2E/DX2                !
 ! R34   R(15,42)                1.0877         estimate D2E/DX2                !
 ! R35   R(16,17)                1.3954         estimate D2E/DX2                !
 ! R36   R(16,21)                1.3903         estimate D2E/DX2                !
 ! R37   R(17,18)                1.3855         estimate D2E/DX2                !
 ! R38   R(17,43)                1.0789         estimate D2E/DX2                !
 ! R39   R(18,19)                1.3878         estimate D2E/DX2                !
 ! R40   R(18,44)                1.08           estimate D2E/DX2                !
 ! R41   R(19,20)                1.3852         estimate D2E/DX2                !
 ! R42   R(19,45)                1.0797         estimate D2E/DX2                !
 ! R43   R(20,21)                1.3883         estimate D2E/DX2                !
 ! R44   R(20,46)                1.08           estimate D2E/DX2                !
 ! R45   R(21,47)                1.0784         estimate D2E/DX2                !
 ! R46   R(22,23)                1.3955         estimate D2E/DX2                !
 ! R47   R(22,27)                1.3895         estimate D2E/DX2                !
 ! R48   R(23,24)                1.3836         estimate D2E/DX2                !
 ! R49   R(23,48)                1.0804         estimate D2E/DX2                !
 ! R50   R(24,25)                1.3885         estimate D2E/DX2                !
 ! R51   R(24,49)                1.08           estimate D2E/DX2                !
 ! R52   R(25,26)                1.385          estimate D2E/DX2                !
 ! R53   R(25,50)                1.0798         estimate D2E/DX2                !
 ! R54   R(26,27)                1.3887         estimate D2E/DX2                !
 ! R55   R(26,51)                1.0801         estimate D2E/DX2                !
 ! R56   R(27,52)                1.0773         estimate D2E/DX2                !
 ! A1    A(2,1,5)               99.2348         estimate D2E/DX2                !
 ! A2    A(2,1,16)             106.0198         estimate D2E/DX2                !
 ! A3    A(2,1,22)             111.1634         estimate D2E/DX2                !
 ! A4    A(5,1,16)             111.3873         estimate D2E/DX2                !
 ! A5    A(5,1,22)             111.1584         estimate D2E/DX2                !
 ! A6    A(16,1,22)            116.4052         estimate D2E/DX2                !
 ! A7    A(1,2,3)              108.4491         estimate D2E/DX2                !
 ! A8    A(1,2,6)              130.4098         estimate D2E/DX2                !
 ! A9    A(3,2,6)              121.1322         estimate D2E/DX2                !
 ! A10   A(2,3,4)              110.9587         estimate D2E/DX2                !
 ! A11   A(2,3,9)              120.5919         estimate D2E/DX2                !
 ! A12   A(4,3,9)              128.4293         estimate D2E/DX2                !
 ! A13   A(3,4,5)              105.1522         estimate D2E/DX2                !
 ! A14   A(1,5,4)              115.9106         estimate D2E/DX2                !
 ! A15   A(1,5,10)             125.4732         estimate D2E/DX2                !
 ! A16   A(4,5,10)             118.5721         estimate D2E/DX2                !
 ! A17   A(2,6,7)              118.038          estimate D2E/DX2                !
 ! A18   A(2,6,28)             122.0055         estimate D2E/DX2                !
 ! A19   A(7,6,28)             119.9558         estimate D2E/DX2                !
 ! A20   A(6,7,8)              121.295          estimate D2E/DX2                !
 ! A21   A(6,7,29)             119.2967         estimate D2E/DX2                !
 ! A22   A(8,7,29)             119.4083         estimate D2E/DX2                !
 ! A23   A(7,8,9)              120.2833         estimate D2E/DX2                !
 ! A24   A(7,8,30)             119.5532         estimate D2E/DX2                !
 ! A25   A(9,8,30)             120.1626         estimate D2E/DX2                !
 ! A26   A(3,9,8)              118.6553         estimate D2E/DX2                !
 ! A27   A(3,9,31)             120.2275         estimate D2E/DX2                !
 ! A28   A(8,9,31)             121.115          estimate D2E/DX2                !
 ! A29   A(5,10,11)            117.4048         estimate D2E/DX2                !
 ! A30   A(5,10,15)            109.5779         estimate D2E/DX2                !
 ! A31   A(5,10,32)            104.5083         estimate D2E/DX2                !
 ! A32   A(11,10,15)           109.2632         estimate D2E/DX2                !
 ! A33   A(11,10,32)           107.7789         estimate D2E/DX2                !
 ! A34   A(15,10,32)           107.8363         estimate D2E/DX2                !
 ! A35   A(10,11,12)           109.3758         estimate D2E/DX2                !
 ! A36   A(10,11,33)           109.877          estimate D2E/DX2                !
 ! A37   A(10,11,34)           111.6257         estimate D2E/DX2                !
 ! A38   A(12,11,33)           108.5516         estimate D2E/DX2                !
 ! A39   A(12,11,34)           109.8286         estimate D2E/DX2                !
 ! A40   A(33,11,34)           107.5187         estimate D2E/DX2                !
 ! A41   A(11,12,13)           111.5038         estimate D2E/DX2                !
 ! A42   A(11,12,35)           109.2692         estimate D2E/DX2                !
 ! A43   A(11,12,36)           109.4134         estimate D2E/DX2                !
 ! A44   A(13,12,35)           110.3388         estimate D2E/DX2                !
 ! A45   A(13,12,36)           109.5913         estimate D2E/DX2                !
 ! A46   A(35,12,36)           106.5974         estimate D2E/DX2                !
 ! A47   A(12,13,14)           111.0795         estimate D2E/DX2                !
 ! A48   A(12,13,37)           109.0056         estimate D2E/DX2                !
 ! A49   A(12,13,38)           110.3693         estimate D2E/DX2                !
 ! A50   A(14,13,37)           109.3058         estimate D2E/DX2                !
 ! A51   A(14,13,38)           110.2974         estimate D2E/DX2                !
 ! A52   A(37,13,38)           106.6685         estimate D2E/DX2                !
 ! A53   A(13,14,15)           111.6889         estimate D2E/DX2                !
 ! A54   A(13,14,39)           110.4707         estimate D2E/DX2                !
 ! A55   A(13,14,40)           109.2821         estimate D2E/DX2                !
 ! A56   A(15,14,39)           109.7489         estimate D2E/DX2                !
 ! A57   A(15,14,40)           108.9797         estimate D2E/DX2                !
 ! A58   A(39,14,40)           106.5226         estimate D2E/DX2                !
 ! A59   A(10,15,14)           111.0262         estimate D2E/DX2                !
 ! A60   A(10,15,41)           108.476          estimate D2E/DX2                !
 ! A61   A(10,15,42)           108.7753         estimate D2E/DX2                !
 ! A62   A(14,15,41)           110.0771         estimate D2E/DX2                !
 ! A63   A(14,15,42)           110.8059         estimate D2E/DX2                !
 ! A64   A(41,15,42)           107.5816         estimate D2E/DX2                !
 ! A65   A(1,16,17)            119.8222         estimate D2E/DX2                !
 ! A66   A(1,16,21)            121.6481         estimate D2E/DX2                !
 ! A67   A(17,16,21)           118.2088         estimate D2E/DX2                !
 ! A68   A(16,17,18)           120.9491         estimate D2E/DX2                !
 ! A69   A(16,17,43)           120.1293         estimate D2E/DX2                !
 ! A70   A(18,17,43)           118.9212         estimate D2E/DX2                !
 ! A71   A(17,18,19)           120.304          estimate D2E/DX2                !
 ! A72   A(17,18,44)           119.4888         estimate D2E/DX2                !
 ! A73   A(19,18,44)           120.207          estimate D2E/DX2                !
 ! A74   A(18,19,20)           119.2215         estimate D2E/DX2                !
 ! A75   A(18,19,45)           120.3605         estimate D2E/DX2                !
 ! A76   A(20,19,45)           120.4175         estimate D2E/DX2                !
 ! A77   A(19,20,21)           120.4119         estimate D2E/DX2                !
 ! A78   A(19,20,46)           120.2067         estimate D2E/DX2                !
 ! A79   A(21,20,46)           119.3814         estimate D2E/DX2                !
 ! A80   A(16,21,20)           120.8924         estimate D2E/DX2                !
 ! A81   A(16,21,47)           120.1717         estimate D2E/DX2                !
 ! A82   A(20,21,47)           118.9353         estimate D2E/DX2                !
 ! A83   A(1,22,23)            117.679          estimate D2E/DX2                !
 ! A84   A(1,22,27)            124.1146         estimate D2E/DX2                !
 ! A85   A(23,22,27)           118.1871         estimate D2E/DX2                !
 ! A86   A(22,23,24)           121.1561         estimate D2E/DX2                !
 ! A87   A(22,23,48)           119.55           estimate D2E/DX2                !
 ! A88   A(24,23,48)           119.2938         estimate D2E/DX2                !
 ! A89   A(23,24,25)           120.0982         estimate D2E/DX2                !
 ! A90   A(23,24,49)           119.6668         estimate D2E/DX2                !
 ! A91   A(25,24,49)           120.2346         estimate D2E/DX2                !
 ! A92   A(24,25,26)           119.3083         estimate D2E/DX2                !
 ! A93   A(24,25,50)           120.3311         estimate D2E/DX2                !
 ! A94   A(26,25,50)           120.3605         estimate D2E/DX2                !
 ! A95   A(25,26,27)           120.4281         estimate D2E/DX2                !
 ! A96   A(25,26,51)           120.1748         estimate D2E/DX2                !
 ! A97   A(27,26,51)           119.3959         estimate D2E/DX2                !
 ! A98   A(22,27,26)           120.8191         estimate D2E/DX2                !
 ! A99   A(22,27,52)           120.2803         estimate D2E/DX2                !
 ! A100  A(26,27,52)           118.8945         estimate D2E/DX2                !
 ! D1    D(5,1,2,3)              4.8255         estimate D2E/DX2                !
 ! D2    D(5,1,2,6)           -176.2725         estimate D2E/DX2                !
 ! D3    D(16,1,2,3)          -110.7098         estimate D2E/DX2                !
 ! D4    D(16,1,2,6)            68.1921         estimate D2E/DX2                !
 ! D5    D(22,1,2,3)           121.8955         estimate D2E/DX2                !
 ! D6    D(22,1,2,6)           -59.2025         estimate D2E/DX2                !
 ! D7    D(2,1,5,4)             -5.5105         estimate D2E/DX2                !
 ! D8    D(2,1,5,10)           176.9516         estimate D2E/DX2                !
 ! D9    D(16,1,5,4)           105.8323         estimate D2E/DX2                !
 ! D10   D(16,1,5,10)          -71.7057         estimate D2E/DX2                !
 ! D11   D(22,1,5,4)          -122.5843         estimate D2E/DX2                !
 ! D12   D(22,1,5,10)           59.8778         estimate D2E/DX2                !
 ! D13   D(2,1,16,17)          -77.7414         estimate D2E/DX2                !
 ! D14   D(2,1,16,21)           95.6367         estimate D2E/DX2                !
 ! D15   D(5,1,16,17)          175.2953         estimate D2E/DX2                !
 ! D16   D(5,1,16,21)          -11.3266         estimate D2E/DX2                !
 ! D17   D(22,1,16,17)          46.4478         estimate D2E/DX2                !
 ! D18   D(22,1,16,21)        -140.1741         estimate D2E/DX2                !
 ! D19   D(2,1,22,23)          -45.5734         estimate D2E/DX2                !
 ! D20   D(2,1,22,27)          136.0561         estimate D2E/DX2                !
 ! D21   D(5,1,22,23)           63.9605         estimate D2E/DX2                !
 ! D22   D(5,1,22,27)         -114.41           estimate D2E/DX2                !
 ! D23   D(16,1,22,23)        -167.0815         estimate D2E/DX2                !
 ! D24   D(16,1,22,27)          14.548          estimate D2E/DX2                !
 ! D25   D(1,2,3,4)             -3.1825         estimate D2E/DX2                !
 ! D26   D(1,2,3,9)            178.3136         estimate D2E/DX2                !
 ! D27   D(6,2,3,4)            177.7942         estimate D2E/DX2                !
 ! D28   D(6,2,3,9)             -0.7097         estimate D2E/DX2                !
 ! D29   D(1,2,6,7)           -178.4642         estimate D2E/DX2                !
 ! D30   D(1,2,6,28)             1.8343         estimate D2E/DX2                !
 ! D31   D(3,2,6,7)              0.319          estimate D2E/DX2                !
 ! D32   D(3,2,6,28)          -179.3826         estimate D2E/DX2                !
 ! D33   D(2,3,4,5)             -0.2962         estimate D2E/DX2                !
 ! D34   D(9,3,4,5)            178.0598         estimate D2E/DX2                !
 ! D35   D(2,3,9,8)              0.4813         estimate D2E/DX2                !
 ! D36   D(2,3,9,31)           179.9408         estimate D2E/DX2                !
 ! D37   D(4,3,9,8)           -177.7352         estimate D2E/DX2                !
 ! D38   D(4,3,9,31)             1.7242         estimate D2E/DX2                !
 ! D39   D(3,4,5,1)              3.8609         estimate D2E/DX2                !
 ! D40   D(3,4,5,10)          -178.4221         estimate D2E/DX2                !
 ! D41   D(1,5,10,11)            7.2563         estimate D2E/DX2                !
 ! D42   D(1,5,10,15)         -118.1101         estimate D2E/DX2                !
 ! D43   D(1,5,10,32)          126.5598         estimate D2E/DX2                !
 ! D44   D(4,5,10,11)         -170.222          estimate D2E/DX2                !
 ! D45   D(4,5,10,15)           64.4115         estimate D2E/DX2                !
 ! D46   D(4,5,10,32)          -50.9186         estimate D2E/DX2                !
 ! D47   D(2,6,7,8)              0.2819         estimate D2E/DX2                !
 ! D48   D(2,6,7,29)          -179.7301         estimate D2E/DX2                !
 ! D49   D(28,6,7,8)           179.9898         estimate D2E/DX2                !
 ! D50   D(28,6,7,29)           -0.0222         estimate D2E/DX2                !
 ! D51   D(6,7,8,9)             -0.5019         estimate D2E/DX2                !
 ! D52   D(6,7,8,30)           179.8487         estimate D2E/DX2                !
 ! D53   D(29,7,8,9)           179.5101         estimate D2E/DX2                !
 ! D54   D(29,7,8,30)           -0.1393         estimate D2E/DX2                !
 ! D55   D(7,8,9,3)              0.1125         estimate D2E/DX2                !
 ! D56   D(7,8,9,31)          -179.3419         estimate D2E/DX2                !
 ! D57   D(30,8,9,3)           179.7598         estimate D2E/DX2                !
 ! D58   D(30,8,9,31)            0.3053         estimate D2E/DX2                !
 ! D59   D(5,10,11,12)         174.2247         estimate D2E/DX2                !
 ! D60   D(5,10,11,33)         -66.7123         estimate D2E/DX2                !
 ! D61   D(5,10,11,34)          52.4743         estimate D2E/DX2                !
 ! D62   D(15,10,11,12)        -60.253          estimate D2E/DX2                !
 ! D63   D(15,10,11,33)         58.8101         estimate D2E/DX2                !
 ! D64   D(15,10,11,34)        177.9966         estimate D2E/DX2                !
 ! D65   D(32,10,11,12)         56.6704         estimate D2E/DX2                !
 ! D66   D(32,10,11,33)        175.7335         estimate D2E/DX2                !
 ! D67   D(32,10,11,34)        -65.08           estimate D2E/DX2                !
 ! D68   D(5,10,15,14)        -171.0196         estimate D2E/DX2                !
 ! D69   D(5,10,15,41)          67.9031         estimate D2E/DX2                !
 ! D70   D(5,10,15,42)         -48.8383         estimate D2E/DX2                !
 ! D71   D(11,10,15,14)         59.0557         estimate D2E/DX2                !
 ! D72   D(11,10,15,41)        -62.0216         estimate D2E/DX2                !
 ! D73   D(11,10,15,42)       -178.763          estimate D2E/DX2                !
 ! D74   D(32,10,15,14)        -57.8314         estimate D2E/DX2                !
 ! D75   D(32,10,15,41)       -178.9087         estimate D2E/DX2                !
 ! D76   D(32,10,15,42)         64.3498         estimate D2E/DX2                !
 ! D77   D(10,11,12,13)         58.8343         estimate D2E/DX2                !
 ! D78   D(10,11,12,35)       -178.9248         estimate D2E/DX2                !
 ! D79   D(10,11,12,36)        -62.5629         estimate D2E/DX2                !
 ! D80   D(33,11,12,13)        -61.0462         estimate D2E/DX2                !
 ! D81   D(33,11,12,35)         61.1947         estimate D2E/DX2                !
 ! D82   D(33,11,12,36)        177.5566         estimate D2E/DX2                !
 ! D83   D(34,11,12,13)       -178.339          estimate D2E/DX2                !
 ! D84   D(34,11,12,35)        -56.0982         estimate D2E/DX2                !
 ! D85   D(34,11,12,36)         60.2638         estimate D2E/DX2                !
 ! D86   D(11,12,13,14)        -54.7856         estimate D2E/DX2                !
 ! D87   D(11,12,13,37)         65.7128         estimate D2E/DX2                !
 ! D88   D(11,12,13,38)       -177.4477         estimate D2E/DX2                !
 ! D89   D(35,12,13,14)       -176.4084         estimate D2E/DX2                !
 ! D90   D(35,12,13,37)        -55.91           estimate D2E/DX2                !
 ! D91   D(35,12,13,38)         60.9295         estimate D2E/DX2                !
 ! D92   D(36,12,13,14)         66.5082         estimate D2E/DX2                !
 ! D93   D(36,12,13,37)       -172.9934         estimate D2E/DX2                !
 ! D94   D(36,12,13,38)        -56.1539         estimate D2E/DX2                !
 ! D95   D(12,13,14,15)         52.7348         estimate D2E/DX2                !
 ! D96   D(12,13,14,39)        175.189          estimate D2E/DX2                !
 ! D97   D(12,13,14,40)        -67.926          estimate D2E/DX2                !
 ! D98   D(37,13,14,15)        -67.586          estimate D2E/DX2                !
 ! D99   D(37,13,14,39)         54.8683         estimate D2E/DX2                !
 ! D100  D(37,13,14,40)        171.7532         estimate D2E/DX2                !
 ! D101  D(38,13,14,15)        175.4384         estimate D2E/DX2                !
 ! D102  D(38,13,14,39)        -62.1073         estimate D2E/DX2                !
 ! D103  D(38,13,14,40)         54.7776         estimate D2E/DX2                !
 ! D104  D(13,14,15,10)        -55.4022         estimate D2E/DX2                !
 ! D105  D(13,14,15,41)         64.7284         estimate D2E/DX2                !
 ! D106  D(13,14,15,42)       -176.3951         estimate D2E/DX2                !
 ! D107  D(39,14,15,10)       -178.2687         estimate D2E/DX2                !
 ! D108  D(39,14,15,41)        -58.1381         estimate D2E/DX2                !
 ! D109  D(39,14,15,42)         60.7384         estimate D2E/DX2                !
 ! D110  D(40,14,15,10)         65.4349         estimate D2E/DX2                !
 ! D111  D(40,14,15,41)       -174.4345         estimate D2E/DX2                !
 ! D112  D(40,14,15,42)        -55.5579         estimate D2E/DX2                !
 ! D113  D(1,16,17,18)         174.7873         estimate D2E/DX2                !
 ! D114  D(1,16,17,43)          -4.9696         estimate D2E/DX2                !
 ! D115  D(21,16,17,18)          1.1832         estimate D2E/DX2                !
 ! D116  D(21,16,17,43)       -178.5737         estimate D2E/DX2                !
 ! D117  D(1,16,21,20)        -174.7074         estimate D2E/DX2                !
 ! D118  D(1,16,21,47)           5.0133         estimate D2E/DX2                !
 ! D119  D(17,16,21,20)         -1.2262         estimate D2E/DX2                !
 ! D120  D(17,16,21,47)        178.4945         estimate D2E/DX2                !
 ! D121  D(16,17,18,19)         -0.3764         estimate D2E/DX2                !
 ! D122  D(16,17,18,44)        179.792          estimate D2E/DX2                !
 ! D123  D(43,17,18,19)        179.3834         estimate D2E/DX2                !
 ! D124  D(43,17,18,44)         -0.4482         estimate D2E/DX2                !
 ! D125  D(17,18,19,20)         -0.4121         estimate D2E/DX2                !
 ! D126  D(17,18,19,45)        179.8525         estimate D2E/DX2                !
 ! D127  D(44,18,19,20)        179.4183         estimate D2E/DX2                !
 ! D128  D(44,18,19,45)         -0.3171         estimate D2E/DX2                !
 ! D129  D(18,19,20,21)          0.3691         estimate D2E/DX2                !
 ! D130  D(18,19,20,46)       -179.5758         estimate D2E/DX2                !
 ! D131  D(45,19,20,21)       -179.8957         estimate D2E/DX2                !
 ! D132  D(45,19,20,46)          0.1595         estimate D2E/DX2                !
 ! D133  D(19,20,21,16)          0.4656         estimate D2E/DX2                !
 ! D134  D(19,20,21,47)       -179.2586         estimate D2E/DX2                !
 ! D135  D(46,20,21,16)       -179.5891         estimate D2E/DX2                !
 ! D136  D(46,20,21,47)          0.6867         estimate D2E/DX2                !
 ! D137  D(1,22,23,24)        -178.683          estimate D2E/DX2                !
 ! D138  D(1,22,23,48)           1.2934         estimate D2E/DX2                !
 ! D139  D(27,22,23,24)         -0.2136         estimate D2E/DX2                !
 ! D140  D(27,22,23,48)        179.7628         estimate D2E/DX2                !
 ! D141  D(1,22,27,26)         178.9336         estimate D2E/DX2                !
 ! D142  D(1,22,27,52)          -0.1549         estimate D2E/DX2                !
 ! D143  D(23,22,27,26)          0.5708         estimate D2E/DX2                !
 ! D144  D(23,22,27,52)       -178.5177         estimate D2E/DX2                !
 ! D145  D(22,23,24,25)         -0.2867         estimate D2E/DX2                !
 ! D146  D(22,23,24,49)        179.9588         estimate D2E/DX2                !
 ! D147  D(48,23,24,25)        179.7368         estimate D2E/DX2                !
 ! D148  D(48,23,24,49)         -0.0176         estimate D2E/DX2                !
 ! D149  D(23,24,25,26)          0.4318         estimate D2E/DX2                !
 ! D150  D(23,24,25,50)       -179.655          estimate D2E/DX2                !
 ! D151  D(49,24,25,26)       -179.8152         estimate D2E/DX2                !
 ! D152  D(49,24,25,50)          0.098          estimate D2E/DX2                !
 ! D153  D(24,25,26,27)         -0.0773         estimate D2E/DX2                !
 ! D154  D(24,25,26,51)        179.5162         estimate D2E/DX2                !
 ! D155  D(50,25,26,27)       -179.9905         estimate D2E/DX2                !
 ! D156  D(50,25,26,51)         -0.397          estimate D2E/DX2                !
 ! D157  D(25,26,27,22)         -0.4324         estimate D2E/DX2                !
 ! D158  D(25,26,27,52)        178.6685         estimate D2E/DX2                !
 ! D159  D(51,26,27,22)        179.9709         estimate D2E/DX2                !
 ! D160  D(51,26,27,52)         -0.9281         estimate D2E/DX2                !
 --------------------------------------------------------------------------------
 Trust Radius=3.00D-01 FncErr=1.00D-07 GrdErr=1.00D-06
 Number of steps in this run=    312 maximum allowed number of steps=    312.
 GradGradGradGradGradGradGradGradGradGradGradGradGradGradGradGradGradGrad

 Leave Link  103 at Mon Jun 21 05:28:29 2021, MaxMem=  3355443200 cpu:         0.2
 (Enter /usr/local/gqt/g09/l202.exe)
 Stoichiometry    C26H25N
 Framework group  C1[X(C26H25N)]
 Deg. of freedom   150
 Full point group                 C1      NOp   1
 Largest Abelian subgroup         C1      NOp   1
 Largest concise Abelian subgroup C1      NOp   1
                         Standard orientation:                         
 ---------------------------------------------------------------------
 Center     Atomic      Atomic             Coordinates (Angstroms)
 Number     Number       Type             X           Y           Z
 ---------------------------------------------------------------------
      1          6           0        0.554466   -0.048393    0.059124
      2          6           0        1.812473   -0.725789   -0.440973
      3          6           0        1.635768   -1.046979   -1.784063
      4          6           0        0.290195   -0.697199   -2.232301
      5          7           0       -0.303887   -0.190863   -1.173986
      6          6           0        2.996527   -1.009826    0.211532
      7          6           0        4.012187   -1.621050   -0.514307
      8          6           0        3.850329   -1.935468   -1.861717
      9          6           0        2.657567   -1.650986   -2.507305
     10          6           0       -1.726849    0.239126   -1.292284
     11          6           0       -2.320437    1.026818   -0.130653
     12          6           0       -3.726409    1.493971   -0.501210
     13          6           0       -4.635846    0.318427   -0.833296
     14          6           0       -4.028146   -0.553033   -1.923818
     15          6           0       -2.606956   -0.976604   -1.578934
     16          6           0        0.932855    1.412906    0.309833
     17          6           0        1.643026    1.758297    1.460286
     18          6           0        2.090646    3.054310    1.659111
     19          6           0        1.844767    4.033835    0.707299
     20          6           0        1.154886    3.698071   -0.445972
     21          6           0        0.707715    2.398796   -0.644303
     22          6           0       -0.049333   -0.808608    1.243909
     23          6           0       -0.148727   -2.196735    1.140633
     24          6           0       -0.707179   -2.951987    2.156574
     25          6           0       -1.175963   -2.332743    3.307564
     26          6           0       -1.085991   -0.955379    3.421031
     27          6           0       -0.531581   -0.199995    2.396147
     28          1           0        3.145226   -0.775898    1.254916
     29          1           0        4.945060   -1.856310   -0.023079
     30          1           0        4.658866   -2.407927   -2.399189
     31          1           0        2.513741   -1.898539   -3.548939
     32          1           0       -1.746005    0.881161   -2.174584
     33          1           0       -2.387514    0.392452    0.750387
     34          1           0       -1.704506    1.882422    0.128808
     35          1           0       -4.141821    2.073161    0.323057
     36          1           0       -3.670757    2.168057   -1.359480
     37          1           0       -4.784932   -0.281733    0.067583
     38          1           0       -5.619943    0.674386   -1.138246
     39          1           0       -4.644543   -1.435836   -2.094084
     40          1           0       -4.014920    0.003044   -2.864735
     41          1           0       -2.610891   -1.617461   -0.694259
     42          1           0       -2.164512   -1.544689   -2.394197
     43          1           0        1.855293    1.012154    2.210145
     44          1           0        2.635217    3.296381    2.559806
     45          1           0        2.191124    5.044682    0.862405
     46          1           0        0.960769    4.446227   -1.200321
     47          1           0        0.183634    2.160872   -1.556255
     48          1           0        0.215777   -2.692418    0.252581
     49          1           0       -0.772654   -4.024848    2.051046
     50          1           0       -1.607418   -2.919058    4.105128
     51          1           0       -1.453397   -0.458468    4.306850
     52          1           0       -0.493617    0.871543    2.501118
 ---------------------------------------------------------------------
 Rotational constants (GHZ):      0.2359141      0.1784540      0.1654492
 Leave Link  202 at Mon Jun 21 05:28:29 2021, MaxMem=  3355443200 cpu:         0.0
 (Enter /usr/local/gqt/g09/l301.exe)
 Standard basis: 6-311+G(d,p) (5D, 7F)
 Ernie: Thresh=  0.10000D-02 Tol=  0.10000D-05 Strict=F.
 There are   771 symmetry adapted cartesian basis functions of A   symmetry.
 There are   744 symmetry adapted basis functions of A   symmetry.
   744 basis functions,  1172 primitive gaussians,   771 cartesian basis functions
    94 alpha electrons       94 beta electrons
       nuclear repulsion energy      2463.5805411637 Hartrees.
 IExCor= 5547 DFT=T Ex+Corr=N12SX ExCW=0 ScaHFX=  0.250000
 ScaDFX=  1.000000  1.000000  1.000000  1.000000 ScalE2=  1.000000  1.000000
 IRadAn=      0 IRanWt=     -1 IRanGd=            0 ICorTp=0 IEmpDi=  4
  HFx wShort=  0.110000 wLong=  0.000000 cFull=  0.000000 cShort=  1.000000 cLong=  0.000000
  DFx wShort=  0.110000 wLong=  0.000000 cFull=  0.000000 cShort=  1.000000 cLong=  0.000000
 NAtoms=   52 NActive=   52 NUniq=   52 SFac= 1.00D+00 NAtFMM=   60 NAOKFM=F Big=F
 Integral buffers will be    131072 words long.
 Raffenetti 2 integral format.
 Two-electron integral symmetry is turned on.
 ------------------------------------------------------------------------------
 Polarizable Continuum Model (PCM)
 =================================
 Model                : PCM (using non-symmetric T matrix).
 Atomic radii         : UFF (Universal Force Field).
 Polarization charges : Total charges.
 Charge compensation  : None.
 Solution method      : On-the-fly selection.
 Cavity type          : Scaled VdW (van der Waals Surface) (Alpha=1.100).
 Cavity algorithm     : GePol (No added spheres)
                        Default sphere list used, NSphG=   52.
                        Lebedev-Laikov grids with approx.  5.0 points / Ang**2.
                        Smoothing algorithm: Karplus/York (Gamma=1.0000).
                        Polarization charges: spherical gaussians, with
                                              point-specific exponents (IZeta= 3).
                        Self-potential: point-specific (ISelfS= 7).
                        Self-field    : sphere-specific E.n sum rule (ISelfD= 2).
 1st derivatives      : Analytical E(r).r(x)/FMM algorithm (CHGder, D1EAlg=3).
                        Cavity 1st derivative terms included.
 Solvent              : Water, Eps=  78.355300 Eps(inf)=   1.777849
 ------------------------------------------------------------------------------
 GePol: Number of generator spheres                  =      52
 GePol: Total number of spheres                      =      52
 GePol: Number of exposed spheres                    =      51 ( 98.08%)
 GePol: Number of points                             =    3329
 GePol: Average weight of points                     =       0.13
 GePol: Minimum weight of points                     =   0.19D-10
 GePol: Maximum weight of points                     =    0.20577
 GePol: Number of points with low weight             =     221
 GePol: Fraction of low-weight points (<1% of avg)   =       6.64%
 GePol: Cavity surface area                          =    429.626 Ang**2
 GePol: Cavity volume                                =    506.089 Ang**3
 Leave Link  301 at Mon Jun 21 05:28:29 2021, MaxMem=  3355443200 cpu:         0.7
 (Enter /usr/local/gqt/g09/l302.exe)
 NPDir=0 NMtPBC=     1 NCelOv=     1 NCel=       1 NClECP=     1 NCelD=      1
         NCelK=      1 NCelE2=     1 NClLst=     1 CellRange=     0.0.
 One-electron integrals computed using PRISM.
 NBasis=   744 RedAO= T EigKep=  1.12D-06  NBF=   744
 NBsUse=   736 1.00D-06 EigRej=  8.98D-07 NBFU=   736
 Precomputing XC quadrature grid using
 IXCGrd= 4 IRadAn=           0 IRanWt=          -1 IRanGd=           0 AccXCQ= 0.00D+00.
 Generated NRdTot=       0 NPtTot=           0 NUsed=           0 NTot=          32
 NSgBfM=   756   757   759   759   767 MxSgAt=    52 MxSgA2=    52.
 Leave Link  302 at Mon Jun 21 05:28:31 2021, MaxMem=  3355443200 cpu:        26.2
 (Enter /usr/local/gqt/g09/l303.exe)
 DipDrv:  MaxL=1.
 Leave Link  303 at Mon Jun 21 05:28:31 2021, MaxMem=  3355443200 cpu:         1.9
 (Enter /usr/local/gqt/g09/l401.exe)
 ExpMin= 4.38D-02 ExpMax= 6.29D+03 ExpMxC= 9.49D+02 IAcc=2 IRadAn=         4 AccDes= 0.00D+00
 Harris functional with IExCor= 5547 and IRadAn=       4 diagonalized for initial guess.
 HarFok:  IExCor= 5547 AccDes= 0.00D+00 IRadAn=         4 IDoV= 1 UseB2=F ITyADJ=14
 ICtDFT=  3500011 ScaDFX=  1.000000  1.000000  1.000000  1.000000
 FoFCou: FMM=F IPFlag=           0 FMFlag=      100000 FMFlg1=           0
         NFxFlg=           0 DoJE=T BraDBF=F KetDBF=T FulRan=T
         wScrn=  0.000000 ICntrl=     500 IOpCl=  0 I1Cent=   200000004 NGrid=           0
         NMat0=    1 NMatS0=      1 NMatT0=    0 NMatD0=    1 NMtDS0=    0 NMtDT0=    0
 Petite list used in FoFCou.
 Harris En= -1026.17513796361    
 JPrj=0 DoOrth=F DoCkMO=F.
 Leave Link  401 at Mon Jun 21 05:28:36 2021, MaxMem=  3355443200 cpu:        87.2
 (Enter /usr/local/gqt/g09/l502.exe)
 Closed shell SCF:
 Using DIIS extrapolation, IDIIS=  1040.
 Integral symmetry usage will be decided dynamically.
 IVT=     1819945 IEndB=     1819945 NGot=  3355443200 MDV=  3354235108
 LenX=  3354235108 LenY=  3353639896
 Requested convergence on RMS density matrix=1.00D-08 within 128 cycles.
 Requested convergence on MAX density matrix=1.00D-06.
 Requested convergence on             energy=1.00D-06.
 No special actions if energy rises.
 Fock matrices will be formed incrementally for  20 cycles.

 Cycle   1  Pass 1  IDiag  1:
 FoFJK:  IHMeth= 1 ICntrl=       0 DoSepK=T KAlg= 0 I1Cent=   0 FoldK=F
 IRaf=         1 NMat=   1 IRICut=       1 DoRegI=T DoRafI=F ISym2E= 0.
 FoFCou: FMM=F IPFlag=           0 FMFlag=      100000 FMFlg1=           0
         NFxFlg=           0 DoJE=T BraDBF=F KetDBF=F FulRan=T
         wScrn=  0.000000 ICntrl=     500 IOpCl=  0 I1Cent=           0 NGrid=           0
         NMat0=    1 NMatS0=      1 NMatT0=    0 NMatD0=    1 NMtDS0=    0 NMtDT0=    0
 Symmetry not used in FoFCou.
 Inv3:  Mode=1 IEnd=    33246723.
 Iteration    1 A*A^-1 deviation from unit magnitude is 1.15D-14 for   3324.
 Iteration    1 A*A^-1 deviation from orthogonality  is 1.13D-14 for   3321   2424.
 Iteration    1 A^-1*A deviation from unit magnitude is 1.18D-14 for   3324.
 Iteration    1 A^-1*A deviation from orthogonality  is 1.35D-08 for   3313   2750.
 Iteration    2 A*A^-1 deviation from unit magnitude is 1.15D-14 for   1236.
 Iteration    2 A*A^-1 deviation from orthogonality  is 1.52D-14 for   2689    185.
 Iteration    2 A^-1*A deviation from unit magnitude is 1.11D-15 for    200.
 Iteration    2 A^-1*A deviation from orthogonality  is 5.54D-16 for   3322   2399.
 E= -1059.95801953999    
 DIIS: error= 4.99D-02 at cycle   1 NSaved=   1.
 NSaved= 1 IEnMin= 1 EnMin= -1059.95801953999     IErMin= 1 ErrMin= 4.99D-02
 ErrMax= 4.99D-02  0.00D+00 EMaxC= 1.00D-01 BMatC= 2.56D+00 BMatP= 2.56D+00
 IDIUse=3 WtCom= 5.01D-01 WtEn= 4.99D-01
 Coeff-Com:  0.100D+01
 Coeff-En:   0.100D+01
 Coeff:      0.100D+01
 Gap=     0.127 Goal=   None    Shift=    0.000
 GapD=    0.127 DampG=1.000 DampE=0.500 DampFc=0.5000 IDamp=-1.
 Damping current iteration by 5.00D-01
 RMSDP=2.85D-02 MaxDP=2.82D+00              OVMax= 1.84D-01

 Cycle   2  Pass 1  IDiag  1:
 RMSU=  8.00D-03    CP:  8.38D-01
 E= -1060.06338567965     Delta-E=       -0.105366139667 Rises=F Damp=T
 DIIS: error= 2.46D-02 at cycle   2 NSaved=   2.
 NSaved= 2 IEnMin= 2 EnMin= -1060.06338567965     IErMin= 2 ErrMin= 2.46D-02
 ErrMax= 2.46D-02  0.00D+00 EMaxC= 1.00D-01 BMatC= 5.79D-01 BMatP= 2.56D+00
 IDIUse=3 WtCom= 7.54D-01 WtEn= 2.46D-01
 Coeff-Com: -0.482D+00 0.148D+01
 Coeff-En:   0.246D+00 0.754D+00
 Coeff:     -0.303D+00 0.130D+01
 Gap=     0.146 Goal=   None    Shift=    0.000
 RMSDP=1.56D-02 MaxDP=1.17D+00 DE=-1.05D-01 OVMax= 4.29D-01

 Cycle   3  Pass 1  IDiag  1:
 RMSU=  1.10D-02    CP:  7.66D-01 -2.05D-01
 E= -1059.48830968786     Delta-E=        0.575075991795 Rises=F Damp=F
 DIIS: error= 3.25D-02 at cycle   3 NSaved=   3.
 NSaved= 3 IEnMin= 2 EnMin= -1060.06338567965     IErMin= 2 ErrMin= 2.46D-02
 ErrMax= 3.25D-02  0.00D+00 EMaxC= 1.00D-01 BMatC= 8.06D-01 BMatP= 5.79D-01
 IDIUse=2 WtCom= 0.00D+00 WtEn= 1.00D+00
 Coeff-En:   0.000D+00 0.832D+00 0.168D+00
 Coeff:      0.000D+00 0.832D+00 0.168D+00
 Gap=     0.179 Goal=   None    Shift=    0.000
 RMSDP=1.18D-02 MaxDP=1.51D+00 DE= 5.75D-01 OVMax= 2.39D-01

 Cycle   4  Pass 1  IDiag  1:
 RMSU=  3.10D-03    CP:  6.93D-01  7.10D-01  3.81D-01
 E= -1060.30555977967     Delta-E=       -0.817250091811 Rises=F Damp=F
 DIIS: error= 1.55D-03 at cycle   4 NSaved=   4.
 NSaved= 4 IEnMin= 4 EnMin= -1060.30555977967     IErMin= 4 ErrMin= 1.55D-03
 ErrMax= 1.55D-03  0.00D+00 EMaxC= 1.00D-01 BMatC= 3.31D-03 BMatP= 5.79D-01
 IDIUse=3 WtCom= 9.85D-01 WtEn= 1.55D-02
 Coeff-Com: -0.204D-01 0.948D-01-0.121D-02 0.927D+00
 Coeff-En:   0.000D+00 0.000D+00 0.000D+00 0.100D+01
 Coeff:     -0.201D-01 0.934D-01-0.119D-02 0.928D+00
 Gap=     0.143 Goal=   None    Shift=    0.000
 RMSDP=1.40D-03 MaxDP=2.91D-01 DE=-8.17D-01 OVMax= 1.56D-02

 Cycle   5  Pass 1  IDiag  1:
 RMSU=  9.39D-04    CP:  6.86D-01  7.93D-01  3.28D-01  9.56D-01
 E= -1060.30630129154     Delta-E=       -0.000741511865 Rises=F Damp=F
 DIIS: error= 9.91D-04 at cycle   5 NSaved=   5.
 NSaved= 5 IEnMin= 5 EnMin= -1060.30630129154     IErMin= 5 ErrMin= 9.91D-04
 ErrMax= 9.91D-04  0.00D+00 EMaxC= 1.00D-01 BMatC= 8.96D-04 BMatP= 3.31D-03
 IDIUse=3 WtCom= 9.90D-01 WtEn= 9.91D-03
 Coeff-Com: -0.380D-02 0.350D-01-0.598D-02 0.501D+00 0.474D+00
 Coeff-En:   0.000D+00 0.000D+00 0.000D+00 0.351D+00 0.649D+00
 Coeff:     -0.377D-02 0.346D-01-0.592D-02 0.500D+00 0.475D+00
 Gap=     0.140 Goal=   None    Shift=    0.000
 RMSDP=5.73D-04 MaxDP=9.24D-02 DE=-7.42D-04 OVMax= 9.29D-03

 Cycle   6  Pass 1  IDiag  1:
 RMSU=  2.34D-04    CP:  6.84D-01  7.70D-01  3.50D-01  9.77D-01  5.93D-01
 E= -1060.30709871851     Delta-E=       -0.000797426972 Rises=F Damp=F
 DIIS: error= 4.08D-04 at cycle   6 NSaved=   6.
 NSaved= 6 IEnMin= 6 EnMin= -1060.30709871851     IErMin= 6 ErrMin= 4.08D-04
 ErrMax= 4.08D-04  0.00D+00 EMaxC= 1.00D-01 BMatC= 1.45D-04 BMatP= 8.96D-04
 IDIUse=3 WtCom= 9.96D-01 WtEn= 4.08D-03
 Coeff-Com:  0.560D-02-0.688D-02-0.666D-02 0.105D+00 0.288D+00 0.616D+00
 Coeff-En:   0.000D+00 0.000D+00 0.000D+00 0.000D+00 0.141D+00 0.859D+00
 Coeff:      0.558D-02-0.685D-02-0.664D-02 0.104D+00 0.287D+00 0.617D+00
 Gap=     0.141 Goal=   None    Shift=    0.000
 RMSDP=1.59D-04 MaxDP=1.29D-02 DE=-7.97D-04 OVMax= 4.00D-03

 Cycle   7  Pass 1  IDiag  1:
 RMSU=  1.22D-04    CP:  6.85D-01  7.74D-01  3.51D-01  9.80D-01  6.58D-01
                    CP:  7.63D-01
 E= -1060.30722373478     Delta-E=       -0.000125016276 Rises=F Damp=F
 DIIS: error= 1.06D-04 at cycle   7 NSaved=   7.
 NSaved= 7 IEnMin= 7 EnMin= -1060.30722373478     IErMin= 7 ErrMin= 1.06D-04
 ErrMax= 1.06D-04  0.00D+00 EMaxC= 1.00D-01 BMatC= 1.97D-05 BMatP= 1.45D-04
 IDIUse=3 WtCom= 9.99D-01 WtEn= 1.06D-03
 Coeff-Com:  0.153D-02-0.376D-02-0.102D-02-0.159D-02 0.114D+00 0.361D+00
 Coeff-Com:  0.530D+00
 Coeff-En:   0.000D+00 0.000D+00 0.000D+00 0.000D+00 0.000D+00 0.100D+00
 Coeff-En:   0.900D+00
 Coeff:      0.153D-02-0.375D-02-0.101D-02-0.158D-02 0.114D+00 0.361D+00
 Coeff:      0.530D+00
 Gap=     0.141 Goal=   None    Shift=    0.000
 RMSDP=6.90D-05 MaxDP=1.37D-02 DE=-1.25D-04 OVMax= 1.16D-03

 Cycle   8  Pass 1  IDiag  1:
 RMSU=  3.11D-05    CP:  6.84D-01  7.75D-01  3.49D-01  9.79D-01  6.72D-01
                    CP:  7.91D-01  6.06D-01
 E= -1060.30724390498     Delta-E=       -0.000020170197 Rises=F Damp=F
 DIIS: error= 1.53D-05 at cycle   8 NSaved=   8.
 NSaved= 8 IEnMin= 8 EnMin= -1060.30724390498     IErMin= 8 ErrMin= 1.53D-05
 ErrMax= 1.53D-05  0.00D+00 EMaxC= 1.00D-01 BMatC= 5.88D-07 BMatP= 1.97D-05
 IDIUse=1 WtCom= 1.00D+00 WtEn= 0.00D+00
 Coeff-Com:  0.520D-03-0.157D-02-0.723D-04-0.527D-02 0.440D-01 0.143D+00
 Coeff-Com:  0.250D+00 0.570D+00
 Coeff:      0.520D-03-0.157D-02-0.723D-04-0.527D-02 0.440D-01 0.143D+00
 Coeff:      0.250D+00 0.570D+00
 Gap=     0.141 Goal=   None    Shift=    0.000
 RMSDP=1.45D-05 MaxDP=2.83D-03 DE=-2.02D-05 OVMax= 2.20D-04

 Cycle   9  Pass 1  IDiag  1:
 RMSU=  8.66D-06    CP:  6.84D-01  7.75D-01  3.49D-01  9.78D-01  6.78D-01
                    CP:  7.87D-01  5.91D-01  7.00D-01
 E= -1060.30724440847     Delta-E=       -0.000000503492 Rises=F Damp=F
 DIIS: error= 7.71D-06 at cycle   9 NSaved=   9.
 NSaved= 9 IEnMin= 9 EnMin= -1060.30724440847     IErMin= 9 ErrMin= 7.71D-06
 ErrMax= 7.71D-06  0.00D+00 EMaxC= 1.00D-01 BMatC= 8.23D-08 BMatP= 5.88D-07
 IDIUse=1 WtCom= 1.00D+00 WtEn= 0.00D+00
 Coeff-Com:  0.206D-03-0.620D-03 0.702D-04-0.246D-02 0.132D-01 0.392D-01
 Coeff-Com:  0.802D-01 0.296D+00 0.574D+00
 Coeff:      0.206D-03-0.620D-03 0.702D-04-0.246D-02 0.132D-01 0.392D-01
 Coeff:      0.802D-01 0.296D+00 0.574D+00
 Gap=     0.141 Goal=   None    Shift=    0.000
 RMSDP=4.96D-06 MaxDP=5.04D-04 DE=-5.03D-07 OVMax= 1.01D-04

 Cycle  10  Pass 1  IDiag  1:
 RMSU=  3.14D-06    CP:  6.84D-01  7.75D-01  3.49D-01  9.78D-01  6.78D-01
                    CP:  7.88D-01  6.00D-01  7.13D-01  7.15D-01
 E= -1060.30724448258     Delta-E=       -0.000000074105 Rises=F Damp=F
 DIIS: error= 2.52D-06 at cycle  10 NSaved=  10.
 NSaved=10 IEnMin=10 EnMin= -1060.30724448258     IErMin=10 ErrMin= 2.52D-06
 ErrMax= 2.52D-06  0.00D+00 EMaxC= 1.00D-01 BMatC= 1.03D-08 BMatP= 8.23D-08
 IDIUse=1 WtCom= 1.00D+00 WtEn= 0.00D+00
 Coeff-Com:  0.869D-04-0.224D-03 0.425D-04-0.638D-03 0.225D-02 0.380D-02
 Coeff-Com:  0.137D-01 0.859D-01 0.301D+00 0.594D+00
 Coeff:      0.869D-04-0.224D-03 0.425D-04-0.638D-03 0.225D-02 0.380D-02
 Coeff:      0.137D-01 0.859D-01 0.301D+00 0.594D+00
 Gap=     0.141 Goal=   None    Shift=    0.000
 RMSDP=1.84D-06 MaxDP=1.16D-04 DE=-7.41D-08 OVMax= 3.04D-05

 Cycle  11  Pass 1  IDiag  1:
 RMSU=  1.25D-06    CP:  6.84D-01  7.75D-01  3.49D-01  9.78D-01  6.78D-01
                    CP:  7.86D-01  5.96D-01  7.28D-01  7.34D-01  8.33D-01
 E= -1060.30724449178     Delta-E=       -0.000000009200 Rises=F Damp=F
 DIIS: error= 9.55D-07 at cycle  11 NSaved=  11.
 NSaved=11 IEnMin=11 EnMin= -1060.30724449178     IErMin=11 ErrMin= 9.55D-07
 ErrMax= 9.55D-07  0.00D+00 EMaxC= 1.00D-01 BMatC= 1.30D-09 BMatP= 1.03D-08
 IDIUse=1 WtCom= 1.00D+00 WtEn= 0.00D+00
 Coeff-Com:  0.211D-04-0.387D-04 0.195D-04 0.112D-04-0.710D-03-0.409D-02
 Coeff-Com: -0.460D-02 0.163D-02 0.819D-01 0.325D+00 0.601D+00
 Coeff:      0.211D-04-0.387D-04 0.195D-04 0.112D-04-0.710D-03-0.409D-02
 Coeff:     -0.460D-02 0.163D-02 0.819D-01 0.325D+00 0.601D+00
 Gap=     0.141 Goal=   None    Shift=    0.000
 RMSDP=8.81D-07 MaxDP=1.34D-04 DE=-9.20D-09 OVMax= 1.03D-05

 Cycle  12  Pass 1  IDiag  1:
 RMSU=  3.82D-07    CP:  6.84D-01  7.75D-01  3.49D-01  9.78D-01  6.78D-01
                    CP:  7.86D-01  5.97D-01  7.33D-01  7.60D-01  8.57D-01
                    CP:  7.56D-01
 E= -1060.30724449331     Delta-E=       -0.000000001529 Rises=F Damp=F
 DIIS: error= 1.74D-07 at cycle  12 NSaved=  12.
 NSaved=12 IEnMin=12 EnMin= -1060.30724449331     IErMin=12 ErrMin= 1.74D-07
 ErrMax= 1.74D-07  0.00D+00 EMaxC= 1.00D-01 BMatC= 7.26D-11 BMatP= 1.30D-09
 IDIUse=1 WtCom= 1.00D+00 WtEn= 0.00D+00
 Coeff-Com:  0.216D-05 0.193D-05 0.526D-05 0.651D-04-0.519D-03-0.217D-02
 Coeff-Com: -0.329D-02-0.797D-02 0.722D-02 0.842D-01 0.264D+00 0.659D+00
 Coeff:      0.216D-05 0.193D-05 0.526D-05 0.651D-04-0.519D-03-0.217D-02
 Coeff:     -0.329D-02-0.797D-02 0.722D-02 0.842D-01 0.264D+00 0.659D+00
 Gap=     0.141 Goal=   None    Shift=    0.000
 RMSDP=1.83D-07 MaxDP=1.31D-05 DE=-1.53D-09 OVMax= 2.43D-06

 Cycle  13  Pass 1  IDiag  1:
 RMSU=  9.85D-08    CP:  6.84D-01  7.75D-01  3.49D-01  9.78D-01  6.78D-01
                    CP:  7.86D-01  5.97D-01  7.32D-01  7.67D-01  8.67D-01
                    CP:  7.71D-01  1.06D+00
 E= -1060.30724449335     Delta-E=       -0.000000000040 Rises=F Damp=F
 DIIS: error= 7.36D-08 at cycle  13 NSaved=  13.
 NSaved=13 IEnMin=13 EnMin= -1060.30724449335     IErMin=13 ErrMin= 7.36D-08
 ErrMax= 7.36D-08  0.00D+00 EMaxC= 1.00D-01 BMatC= 1.15D-11 BMatP= 7.26D-11
 IDIUse=1 WtCom= 1.00D+00 WtEn= 0.00D+00
 Coeff-Com: -0.632D-06 0.384D-05 0.116D-05 0.289D-04-0.182D-03-0.673D-03
 Coeff-Com: -0.112D-02-0.406D-02-0.363D-02 0.123D-01 0.799D-01 0.355D+00
 Coeff-Com:  0.563D+00
 Coeff:     -0.632D-06 0.384D-05 0.116D-05 0.289D-04-0.182D-03-0.673D-03
 Coeff:     -0.112D-02-0.406D-02-0.363D-02 0.123D-01 0.799D-01 0.355D+00
 Coeff:      0.563D+00
 Gap=     0.141 Goal=   None    Shift=    0.000
 RMSDP=7.14D-08 MaxDP=1.03D-05 DE=-4.00D-11 OVMax= 9.83D-07

 Cycle  14  Pass 1  IDiag  1:
 RMSU=  3.43D-08    CP:  6.84D-01  7.75D-01  3.49D-01  9.78D-01  6.78D-01
                    CP:  7.85D-01  5.97D-01  7.33D-01  7.66D-01  8.73D-01
                    CP:  7.93D-01  1.06D+00  8.01D-01
 E= -1060.30724449329     Delta-E=        0.000000000059 Rises=F Damp=F
 DIIS: error= 2.95D-08 at cycle  14 NSaved=  14.
 NSaved=14 IEnMin=13 EnMin= -1060.30724449335     IErMin=14 ErrMin= 2.95D-08
 ErrMax= 2.95D-08  0.00D+00 EMaxC= 1.00D-01 BMatC= 9.55D-13 BMatP= 1.15D-11
 IDIUse=1 WtCom= 1.00D+00 WtEn= 0.00D+00
 Coeff-Com: -0.334D-06 0.144D-05 0.753D-08 0.979D-05-0.478D-04-0.159D-03
 Coeff-Com: -0.282D-03-0.144D-02-0.246D-02-0.936D-03 0.185D-01 0.126D+00
 Coeff-Com:  0.288D+00 0.573D+00
 Coeff:     -0.334D-06 0.144D-05 0.753D-08 0.979D-05-0.478D-04-0.159D-03
 Coeff:     -0.282D-03-0.144D-02-0.246D-02-0.936D-03 0.185D-01 0.126D+00
 Coeff:      0.288D+00 0.573D+00
 Gap=     0.141 Goal=   None    Shift=    0.000
 RMSDP=2.06D-08 MaxDP=2.18D-06 DE= 5.91D-11 OVMax= 3.20D-07

 Cycle  15  Pass 1  IDiag  1:
 RMSU=  1.22D-08    CP:  6.84D-01  7.75D-01  3.49D-01  9.78D-01  6.78D-01
                    CP:  7.85D-01  5.97D-01  7.33D-01  7.66D-01  8.74D-01
                    CP:  7.99D-01  1.07D+00  7.99D-01  8.92D-01
 E= -1060.30724449341     Delta-E=       -0.000000000118 Rises=F Damp=F
 DIIS: error= 9.71D-09 at cycle  15 NSaved=  15.
 NSaved=15 IEnMin=15 EnMin= -1060.30724449341     IErMin=15 ErrMin= 9.71D-09
 ErrMax= 9.71D-09  0.00D+00 EMaxC= 1.00D-01 BMatC= 1.50D-13 BMatP= 9.55D-13
 IDIUse=1 WtCom= 1.00D+00 WtEn= 0.00D+00
 Coeff-Com: -0.186D-06 0.398D-06-0.225D-07 0.576D-06 0.137D-05 0.131D-04
 Coeff-Com:  0.179D-04-0.169D-03-0.703D-03-0.223D-02-0.173D-02 0.145D-01
 Coeff-Com:  0.692D-01 0.316D+00 0.605D+00
 Coeff:     -0.186D-06 0.398D-06-0.225D-07 0.576D-06 0.137D-05 0.131D-04
 Coeff:      0.179D-04-0.169D-03-0.703D-03-0.223D-02-0.173D-02 0.145D-01
 Coeff:      0.692D-01 0.316D+00 0.605D+00
 Gap=     0.141 Goal=   None    Shift=    0.000
 RMSDP=8.55D-09 MaxDP=1.62D-06 DE=-1.18D-10 OVMax= 1.13D-07

 Cycle  16  Pass 1  IDiag  1:
 RMSU=  3.76D-09    CP:  6.84D-01  7.75D-01  3.49D-01  9.78D-01  6.78D-01
                    CP:  7.85D-01  5.97D-01  7.33D-01  7.66D-01  8.74D-01
                    CP:  7.98D-01  1.08D+00  8.20D-01  9.09D-01  7.57D-01
 E= -1060.30724449360     Delta-E=       -0.000000000198 Rises=F Damp=F
 DIIS: error= 2.03D-09 at cycle  16 NSaved=  16.
 NSaved=16 IEnMin=16 EnMin= -1060.30724449360     IErMin=16 ErrMin= 2.03D-09
 ErrMax= 2.03D-09  0.00D+00 EMaxC= 1.00D-01 BMatC= 7.39D-15 BMatP= 1.50D-13
 IDIUse=1 WtCom= 1.00D+00 WtEn= 0.00D+00
 Coeff-Com: -0.746D-07 0.108D-06 0.922D-08-0.512D-06 0.423D-05 0.176D-04
 Coeff-Com:  0.293D-04 0.236D-04-0.132D-03-0.959D-03-0.219D-02-0.330D-02
 Coeff-Com:  0.764D-02 0.898D-01 0.263D+00 0.646D+00
 Coeff:     -0.746D-07 0.108D-06 0.922D-08-0.512D-06 0.423D-05 0.176D-04
 Coeff:      0.293D-04 0.236D-04-0.132D-03-0.959D-03-0.219D-02-0.330D-02
 Coeff:      0.764D-02 0.898D-01 0.263D+00 0.646D+00
 Gap=     0.141 Goal=   None    Shift=    0.000
 RMSDP=2.42D-09 MaxDP=4.99D-07 DE=-1.98D-10 OVMax= 1.96D-08

 Error on total polarization charges =  0.02172
 SCF Done:  E(RN12SX) =  -1060.30724449     A.U. after   16 cycles
            NFock= 16  Conv=0.24D-08     -V/T= 2.0063
 KE= 1.053633377281D+03 PE=-7.386459431314D+03 EE= 2.808938268375D+03
 Leave Link  502 at Mon Jun 21 05:53:27 2021, MaxMem=  3355443200 cpu:     23724.3
 (Enter /usr/local/gqt/g09/l601.exe)
 Copying SCF densities to generalized density rwf, IOpCl= 0 IROHF=0.

 **********************************************************************

            Population analysis using the SCF density.

 **********************************************************************

 Orbital symmetries:
       Occupied  (A) (A) (A) (A) (A) (A) (A) (A) (A) (A) (A) (A)
                 (A) (A) (A) (A) (A) (A) (A) (A) (A) (A) (A) (A)
                 (A) (A) (A) (A) (A) (A) (A) (A) (A) (A) (A) (A)
                 (A) (A) (A) (A) (A) (A) (A) (A) (A) (A) (A) (A)
                 (A) (A) (A) (A) (A) (A) (A) (A) (A) (A) (A) (A)
                 (A) (A) (A) (A) (A) (A) (A) (A) (A) (A) (A) (A)
                 (A) (A) (A) (A) (A) (A) (A) (A) (A) (A) (A) (A)
                 (A) (A) (A) (A) (A) (A) (A) (A) (A) (A)
       Virtual   (A) (A) (A) (A) (A) (A) (A) (A) (A) (A) (A) (A)
                 (A) (A) (A) (A) (A) (A) (A) (A) (A) (A) (A) (A)
                 (A) (A) (A) (A) (A) (A) (A) (A) (A) (A) (A) (A)
                 (A) (A) (A) (A) (A) (A) (A) (A) (A) (A) (A) (A)
                 (A) (A) (A) (A) (A) (A) (A) (A) (A) (A) (A) (A)
                 (A) (A) (A) (A) (A) (A) (A) (A) (A) (A) (A) (A)
                 (A) (A) (A) (A) (A) (A) (A) (A) (A) (A) (A) (A)
                 (A) (A) (A) (A) (A) (A) (A) (A) (A) (A) (A) (A)
                 (A) (A) (A) (A) (A) (A) (A) (A) (A) (A) (A) (A)
                 (A) (A) (A) (A) (A) (A) (A) (A) (A) (A) (A) (A)
                 (A) (A) (A) (A) (A) (A) (A) (A) (A) (A) (A) (A)
                 (A) (A) (A) (A) (A) (A) (A) (A) (A) (A) (A) (A)
                 (A) (A) (A) (A) (A) (A) (A) (A) (A) (A) (A) (A)
                 (A) (A) (A) (A) (A) (A) (A) (A) (A) (A) (A) (A)
                 (A) (A) (A) (A) (A) (A) (A) (A) (A) (A) (A) (A)
                 (A) (A) (A) (A) (A) (A) (A) (A) (A) (A) (A) (A)
                 (A) (A) (A) (A) (A) (A) (A) (A) (A) (A) (A) (A)
                 (A) (A) (A) (A) (A) (A) (A) (A) (A) (A) (A) (A)
                 (A) (A) (A) (A) (A) (A) (A) (A) (A) (A) (A) (A)
                 (A) (A) (A) (A) (A) (A) (A) (A) (A) (A) (A) (A)
                 (A) (A) (A) (A) (A) (A) (A) (A) (A) (A) (A) (A)
                 (A) (A) (A) (A) (A) (A) (A) (A) (A) (A) (A) (A)
                 (A) (A) (A) (A) (A) (A) (A) (A) (A) (A) (A) (A)
                 (A) (A) (A) (A) (A) (A) (A) (A) (A) (A) (A) (A)
                 (A) (A) (A) (A) (A) (A) (A) (A) (A) (A) (A) (A)
                 (A) (A) (A) (A) (A) (A) (A) (A) (A) (A) (A) (A)
                 (A) (A) (A) (A) (A) (A) (A) (A) (A) (A) (A) (A)
                 (A) (A) (A) (A) (A) (A) (A) (A) (A) (A) (A) (A)
                 (A) (A) (A) (A) (A) (A) (A) (A) (A) (A) (A) (A)
                 (A) (A) (A) (A) (A) (A) (A) (A) (A) (A) (A) (A)
                 (A) (A) (A) (A) (A) (A) (A) (A) (A) (A) (A) (A)
                 (A) (A) (A) (A) (A) (A) (A) (A) (A) (A) (A) (A)
                 (A) (A) (A) (A) (A) (A) (A) (A) (A) (A) (A) (A)
                 (A) (A) (A) (A) (A) (A) (A) (A) (A) (A) (A) (A)
                 (A) (A) (A) (A) (A) (A) (A) (A) (A) (A) (A) (A)
                 (A) (A) (A) (A) (A) (A) (A) (A) (A) (A) (A) (A)
                 (A) (A) (A) (A) (A) (A) (A) (A) (A) (A) (A) (A)
                 (A) (A) (A) (A) (A) (A) (A) (A) (A) (A) (A) (A)
                 (A) (A) (A) (A) (A) (A) (A) (A) (A) (A) (A) (A)
                 (A) (A) (A) (A) (A) (A) (A) (A) (A) (A) (A) (A)
                 (A) (A) (A) (A) (A) (A) (A) (A) (A) (A) (A) (A)
                 (A) (A) (A) (A) (A) (A) (A) (A) (A) (A) (A) (A)
                 (A) (A) (A) (A) (A) (A) (A) (A) (A) (A) (A) (A)
                 (A) (A) (A) (A) (A) (A) (A) (A) (A) (A) (A) (A)
                 (A) (A) (A) (A) (A) (A) (A) (A) (A) (A) (A) (A)
                 (A) (A) (A) (A) (A) (A) (A) (A) (A) (A) (A) (A)
                 (A) (A) (A) (A) (A) (A) (A) (A) (A) (A) (A) (A)
                 (A) (A) (A) (A) (A) (A) (A) (A) (A) (A) (A) (A)
                 (A) (A) (A) (A) (A) (A) (A) (A) (A) (A) (A) (A)
                 (A) (A) (A) (A) (A) (A) (A) (A) (A) (A) (A) (A)
                 (A) (A) (A) (A) (A) (A) (A) (A) (A) (A) (A) (A)
                 (A) (A) (A) (A) (A) (A) (A) (A) (A) (A) (A) (A)
                 (A) (A) (A) (A) (A) (A) (A) (A) (A) (A) (A) (A)
                 (A) (A) (A) (A) (A) (A)
 The electronic state is 1-A.
 Alpha  occ. eigenvalues --  -14.41652 -10.30191 -10.26094 -10.25235 -10.24968
 Alpha  occ. eigenvalues --  -10.24631 -10.23740 -10.23600 -10.23508 -10.23264
 Alpha  occ. eigenvalues --  -10.23232 -10.23192 -10.23152 -10.23135 -10.23132
 Alpha  occ. eigenvalues --  -10.23108 -10.23060 -10.23052 -10.23008 -10.22967
 Alpha  occ. eigenvalues --  -10.22937 -10.22928 -10.21189 -10.21121 -10.20962
 Alpha  occ. eigenvalues --  -10.20935 -10.20770  -0.98706  -0.88264  -0.87410
 Alpha  occ. eigenvalues --   -0.87023  -0.84042  -0.80958  -0.77882  -0.76216
 Alpha  occ. eigenvalues --   -0.76023  -0.75792  -0.75284  -0.74508  -0.73231
 Alpha  occ. eigenvalues --   -0.70112  -0.65042  -0.62507  -0.62220  -0.61342
 Alpha  occ. eigenvalues --   -0.60770  -0.60214  -0.59670  -0.58409  -0.56144
 Alpha  occ. eigenvalues --   -0.55853  -0.53403  -0.52997  -0.49731  -0.49320
 Alpha  occ. eigenvalues --   -0.47753  -0.47387  -0.46557  -0.46215  -0.45485
 Alpha  occ. eigenvalues --   -0.45153  -0.44640  -0.44134  -0.43546  -0.43272
 Alpha  occ. eigenvalues --   -0.42762  -0.42673  -0.42390  -0.41560  -0.38968
 Alpha  occ. eigenvalues --   -0.38728  -0.38500  -0.37916  -0.37598  -0.37010
 Alpha  occ. eigenvalues --   -0.36773  -0.36397  -0.35456  -0.35149  -0.34823
 Alpha  occ. eigenvalues --   -0.34358  -0.33886  -0.33480  -0.32039  -0.31482
 Alpha  occ. eigenvalues --   -0.30395  -0.29468  -0.27403  -0.26111  -0.25850
 Alpha  occ. eigenvalues --   -0.25501  -0.24981  -0.23962  -0.21017
 Alpha virt. eigenvalues --   -0.06934  -0.04523  -0.03614  -0.02813  -0.02370
 Alpha virt. eigenvalues --   -0.01638  -0.01037  -0.00171  -0.00116   0.00266
 Alpha virt. eigenvalues --    0.00999   0.01213   0.01627   0.01915   0.02170
 Alpha virt. eigenvalues --    0.02539   0.02922   0.03080   0.03521   0.03712
 Alpha virt. eigenvalues --    0.04117   0.04295   0.04959   0.05209   0.05394
 Alpha virt. eigenvalues --    0.05791   0.06024   0.06516   0.06973   0.07365
 Alpha virt. eigenvalues --    0.07704   0.07894   0.08223   0.08512   0.09177
 Alpha virt. eigenvalues --    0.09292   0.09636   0.09904   0.10213   0.10405
 Alpha virt. eigenvalues --    0.10646   0.10929   0.11263   0.11480   0.11857
 Alpha virt. eigenvalues --    0.11995   0.12401   0.12476   0.13098   0.13180
 Alpha virt. eigenvalues --    0.13429   0.13620   0.13698   0.14021   0.14538
 Alpha virt. eigenvalues --    0.14743   0.14982   0.15314   0.15462   0.15544
 Alpha virt. eigenvalues --    0.15815   0.15969   0.16088   0.16204   0.16414
 Alpha virt. eigenvalues --    0.16933   0.17170   0.17500   0.17620   0.17761
 Alpha virt. eigenvalues --    0.18022   0.18148   0.18367   0.18497   0.18768
 Alpha virt. eigenvalues --    0.18921   0.19203   0.19619   0.19825   0.20059
 Alpha virt. eigenvalues --    0.20154   0.20316   0.20542   0.20818   0.21125
 Alpha virt. eigenvalues --    0.21203   0.21495   0.21693   0.21941   0.22129
 Alpha virt. eigenvalues --    0.22265   0.22422   0.22718   0.22981   0.23173
 Alpha virt. eigenvalues --    0.23264   0.23861   0.24026   0.24114   0.24343
 Alpha virt. eigenvalues --    0.24381   0.24882   0.24893   0.25102   0.25301
 Alpha virt. eigenvalues --    0.25602   0.25855   0.26335   0.26501   0.26754
 Alpha virt. eigenvalues --    0.26859   0.27195   0.27269   0.27561   0.27883
 Alpha virt. eigenvalues --    0.27978   0.28145   0.28604   0.28677   0.29131
 Alpha virt. eigenvalues --    0.29351   0.29424   0.29716   0.30053   0.30247
 Alpha virt. eigenvalues --    0.30716   0.31066   0.31214   0.31456   0.31658
 Alpha virt. eigenvalues --    0.32226   0.32645   0.32994   0.33288   0.33460
 Alpha virt. eigenvalues --    0.33640   0.34222   0.34457   0.34646   0.35069
 Alpha virt. eigenvalues --    0.35975   0.36070   0.36569   0.36859   0.37496
 Alpha virt. eigenvalues --    0.37806   0.38226   0.39305   0.39310   0.40216
 Alpha virt. eigenvalues --    0.40541   0.41053   0.41576   0.41670   0.42084
 Alpha virt. eigenvalues --    0.42928   0.44027   0.45183   0.45799   0.46828
 Alpha virt. eigenvalues --    0.47018   0.47566   0.48227   0.49253   0.49843
 Alpha virt. eigenvalues --    0.50157   0.52086   0.52655   0.52762   0.53378
 Alpha virt. eigenvalues --    0.53658   0.53933   0.54309   0.54423   0.54706
 Alpha virt. eigenvalues --    0.55537   0.56294   0.56599   0.57126   0.57210
 Alpha virt. eigenvalues --    0.57929   0.58252   0.58891   0.59377   0.59831
 Alpha virt. eigenvalues --    0.60225   0.60560   0.60956   0.61368   0.61913
 Alpha virt. eigenvalues --    0.62576   0.62741   0.63033   0.63700   0.64361
 Alpha virt. eigenvalues --    0.64799   0.64995   0.65337   0.65873   0.66663
 Alpha virt. eigenvalues --    0.66900   0.67367   0.67821   0.68312   0.68341
 Alpha virt. eigenvalues --    0.69255   0.69824   0.69975   0.70153   0.70458
 Alpha virt. eigenvalues --    0.70926   0.71187   0.71756   0.72113   0.72376
 Alpha virt. eigenvalues --    0.72607   0.72971   0.73017   0.73273   0.73978
 Alpha virt. eigenvalues --    0.74077   0.74258   0.74588   0.74868   0.75438
 Alpha virt. eigenvalues --    0.75646   0.76382   0.76573   0.77077   0.77216
 Alpha virt. eigenvalues --    0.77634   0.77936   0.78097   0.78527   0.78862
 Alpha virt. eigenvalues --    0.79102   0.79429   0.79815   0.80415   0.80762
 Alpha virt. eigenvalues --    0.81579   0.81790   0.82561   0.82835   0.83089
 Alpha virt. eigenvalues --    0.83413   0.83958   0.84108   0.84680   0.85091
 Alpha virt. eigenvalues --    0.85553   0.85908   0.86542   0.86786   0.87387
 Alpha virt. eigenvalues --    0.88254   0.88537   0.88797   0.90080   0.90268
 Alpha virt. eigenvalues --    0.91385   0.91705   0.92111   0.92993   0.93862
 Alpha virt. eigenvalues --    0.94803   0.95295   0.95573   0.95854   0.96490
 Alpha virt. eigenvalues --    0.97165   0.98050   0.98705   0.99593   1.00517
 Alpha virt. eigenvalues --    1.02087   1.02302   1.03153   1.03775   1.04562
 Alpha virt. eigenvalues --    1.05164   1.05877   1.06554   1.06688   1.07118
 Alpha virt. eigenvalues --    1.07698   1.08491   1.09176   1.09275   1.09733
 Alpha virt. eigenvalues --    1.10046   1.10519   1.11105   1.12080   1.13406
 Alpha virt. eigenvalues --    1.13904   1.14917   1.15489   1.16376   1.17035
 Alpha virt. eigenvalues --    1.17719   1.18810   1.19946   1.21211   1.22008
 Alpha virt. eigenvalues --    1.23861   1.24641   1.25046   1.26271   1.28330
 Alpha virt. eigenvalues --    1.29918   1.30684   1.31775   1.32365   1.33087
 Alpha virt. eigenvalues --    1.33775   1.34518   1.35930   1.37836   1.40814
 Alpha virt. eigenvalues --    1.42100   1.43379   1.44328   1.45084   1.46452
 Alpha virt. eigenvalues --    1.47552   1.48617   1.49754   1.50226   1.50686
 Alpha virt. eigenvalues --    1.51709   1.52605   1.53198   1.53624   1.54131
 Alpha virt. eigenvalues --    1.54504   1.55271   1.56023   1.56676   1.56865
 Alpha virt. eigenvalues --    1.57275   1.57502   1.57807   1.58304   1.58399
 Alpha virt. eigenvalues --    1.59314   1.59615   1.59875   1.60365   1.61516
 Alpha virt. eigenvalues --    1.61958   1.62157   1.63009   1.63530   1.64005
 Alpha virt. eigenvalues --    1.64612   1.64944   1.65529   1.66090   1.66654
 Alpha virt. eigenvalues --    1.66857   1.67554   1.68133   1.68388   1.69026
 Alpha virt. eigenvalues --    1.69373   1.70350   1.71168   1.71999   1.72164
 Alpha virt. eigenvalues --    1.72792   1.74169   1.74750   1.75277   1.75970
 Alpha virt. eigenvalues --    1.76458   1.76629   1.77310   1.77910   1.78886
 Alpha virt. eigenvalues --    1.79229   1.80003   1.80408   1.80871   1.81987
 Alpha virt. eigenvalues --    1.82208   1.82412   1.83100   1.84305   1.84441
 Alpha virt. eigenvalues --    1.84713   1.85836   1.86286   1.86857   1.87777
 Alpha virt. eigenvalues --    1.87967   1.89027   1.90024   1.91079   1.92535
 Alpha virt. eigenvalues --    1.92813   1.93113   1.93596   1.94148   1.94228
 Alpha virt. eigenvalues --    1.94899   1.95632   1.95843   1.96021   1.97027
 Alpha virt. eigenvalues --    1.97241   1.98009   1.98566   1.99019   1.99593
 Alpha virt. eigenvalues --    2.00031   2.00589   2.01154   2.01554   2.02939
 Alpha virt. eigenvalues --    2.03808   2.04416   2.05606   2.06082   2.07196
 Alpha virt. eigenvalues --    2.07925   2.08691   2.09112   2.09539   2.10632
 Alpha virt. eigenvalues --    2.11448   2.12131   2.13262   2.14078   2.15603
 Alpha virt. eigenvalues --    2.17032   2.17936   2.19235   2.20450   2.21486
 Alpha virt. eigenvalues --    2.22824   2.24099   2.24366   2.26560   2.27671
 Alpha virt. eigenvalues --    2.29296   2.30037   2.30779   2.31172   2.31708
 Alpha virt. eigenvalues --    2.33253   2.34209   2.34931   2.36029   2.37382
 Alpha virt. eigenvalues --    2.38276   2.38747   2.39522   2.39801   2.41182
 Alpha virt. eigenvalues --    2.41967   2.42753   2.43424   2.44334   2.44708
 Alpha virt. eigenvalues --    2.45999   2.46912   2.47670   2.48677   2.49081
 Alpha virt. eigenvalues --    2.49921   2.51083   2.52147   2.52821   2.54664
 Alpha virt. eigenvalues --    2.56166   2.57800   2.59275   2.60996   2.62783
 Alpha virt. eigenvalues --    2.63384   2.64168   2.65835   2.66407   2.67265
 Alpha virt. eigenvalues --    2.68376   2.68474   2.69679   2.70017   2.70313
 Alpha virt. eigenvalues --    2.70882   2.71556   2.72252   2.73054   2.73473
 Alpha virt. eigenvalues --    2.73917   2.74296   2.74537   2.75253   2.75357
 Alpha virt. eigenvalues --    2.75796   2.76856   2.77315   2.77994   2.78194
 Alpha virt. eigenvalues --    2.78573   2.79212   2.80131   2.81286   2.81557
 Alpha virt. eigenvalues --    2.82170   2.82987   2.83996   2.84413   2.84904
 Alpha virt. eigenvalues --    2.85071   2.85578   2.86210   2.86659   2.87034
 Alpha virt. eigenvalues --    2.87941   2.88453   2.88567   2.89369   2.89667
 Alpha virt. eigenvalues --    2.90216   2.90629   2.91027   2.93177   2.94909
 Alpha virt. eigenvalues --    2.95191   2.95660   2.95861   2.96059   2.96831
 Alpha virt. eigenvalues --    2.97677   2.98530   2.98961   3.00998   3.02244
 Alpha virt. eigenvalues --    3.03920   3.04867   3.06633   3.07175   3.09500
 Alpha virt. eigenvalues --    3.10639   3.11240   3.12004   3.13391   3.15271
 Alpha virt. eigenvalues --    3.17002   3.19173   3.19680   3.22913   3.24902
 Alpha virt. eigenvalues --    3.25477   3.27349   3.31101   3.31922   3.37533
 Alpha virt. eigenvalues --    3.39031   3.41010   3.41475   3.42097   3.42721
 Alpha virt. eigenvalues --    3.43387   3.47049   3.49435   3.50307   3.52892
 Alpha virt. eigenvalues --    3.54118   3.55449   3.57341   3.59400   3.60458
 Alpha virt. eigenvalues --    3.62656   3.66883   3.66982   3.68574   3.71777
 Alpha virt. eigenvalues --    3.73334   3.78945   3.80714   3.81567   3.82682
 Alpha virt. eigenvalues --    3.85648   3.87503   3.91968   3.97639   3.98792
 Alpha virt. eigenvalues --    4.01959   4.02834   4.03731   4.04891   4.05931
 Alpha virt. eigenvalues --    4.07776   4.15352   4.15577   4.17195   4.17886
 Alpha virt. eigenvalues --    4.18748   4.19004   4.20711   4.21303   4.28190
[...]
 420,-0.00003806,-0.00003494,0.00000971,-0.00000776,0.00004160,-0.00000
 728,-0.00001655,0.00000589,-0.00003256,0.00001852,0.00001204,-0.000012
 27,0.00000116,0.00000955,-0.00000017,0.00000150,-0.00001066,0.00000070
 ,0.00000035,0.00004196,-0.00001554,-0.00000383,-0.00001204,-0.00000156
 ,0.00000241,0.00000637,-0.00000013,-0.00000034,-0.00000084,-0.00000010
 ,-0.00000372,0.00000373,-0.00000341,-0.00000807,-0.00002173,0.00000162
 ,0.00001925,0.00007976,0.00011165,-0.00027964,-0.00002613,0.00004340,-
 0.00004405,0.00000481,-0.00000825,0.00000218,0.00000639,0.00001772,-0.
 00000560,-0.00000826,0.00002494,-0.00001648,0.00004997,0.00007318,0.00
 005964,0.00515107,0.00227279,-0.00010608,-0.00192930,0.02283112,0.0046
 4919,0.01109861,-0.01416115,-0.05301554,0.00193651,-0.02396625,0.00318
 426,0.00579309,-0.00137375,-0.00080842,0.00010795,0.00007561,-0.001174
 45,-0.00000455,0.00000944,-0.00000021,0.00000486,-0.00000101,-0.000001
 44,0.00000343,0.00000010,-0.00000119,0.00000211,-0.00000181,-0.0000045
 1,-0.00000924,0.00000042,-0.00000532,0.00000541,-0.00000812,-0.0000045
 2,0.00000309,-0.00000046,-0.00000031,-0.00000288,0.00000174,0.00000055
 ,-0.00000314,-0.00000045,-0.00000223,0.00000083,-0.00000069,0.00000129
 ,-0.00000241,0.00000008,0.00000043,-0.00000444,-0.00000159,0.00000059,
 -0.00000501,0.00000241,-0.00000273,0.00002568,-0.00001017,0.00000459,0
 .00000296,-0.00000040,-0.00000624,-0.00002010,-0.00002057,0.00000343,0
 .00000373,0.00000506,0.00000441,-0.00000004,0.00000392,0.00000139,0.00
 000058,0.00001451,0.00000070,0.00000116,-0.00000856,-0.00000546,-0.002
 60059,-0.00057988,-0.00071464,-0.01653901,0.01459395,0.04866463,-0.000
 67419,-0.00005369,-0.00056410,0.00004206,0.00001062,0.00003703,-0.0000
 1456,0.00001707,-0.00002348,-0.00002657,-0.00002071,-0.00002524,0.0000
 4672,0.00001340,-0.00016637,-0.00000481,0.00000089,0.00001453,0.000007
 90,-0.00000899,-0.00001381,0.00000179,0.00000356,0.00001572,-0.0000062
 6,0.00000207,0.00000781,-0.00000968,0.00000936,-0.00000624,0.00001856,
 -0.00001357,-0.00000977,-0.00000749,-0.00000039,0.00000834,0.00000081,
 -0.00000016,0.00000174,-0.00000359,-0.00000273,0.00000075,0.00000611,-
 0.00000723,-0.00000461,-0.00001973,0.00000841,0.00008090,0.00002558,0.
 00000238,0.00002398,0.00000743,-0.00000356,-0.00000216,-0.00000777,-0.
 00000134,-0.00000378,0.00000655,0.00000038,0.00001265,0.00000178,-0.00
 004756,-0.00002697,-0.00079759,0.00041795,-0.00033089,0.00374161,0.002
 45604,0.00513130,-0.00302778,-0.01088358,0.01083312,-0.10307512,-0.072
 90390,0.09832412,0.00512966,0.00306439,-0.00195844,0.00561678,0.001207
 33,0.00275670,0.00001018,0.00000138,-0.00000370,-0.00000462,0.00000135
 ,0.00000054,-0.00000235,0.00000067,0.00000162,-0.00000257,0.00000352,0
 .00000485,0.00000439,0.00000178,0.00000659,-0.00000413,0.00001073,0.00
 001447,-0.00000116,-0.00000174,0.00000361,0.00000183,-0.00000194,-0.00
 000087,0.00000527,-0.00000030,0.00000362,-0.00000010,-0.00000103,0.000
 00135,0.00000277,-0.00000038,-0.00000024,0.00000123,0.00000088,-0.0000
 0084,0.00000307,-0.00000187,0.00000297,-0.00001181,0.00000062,-0.00000
 271,-0.00000249,-0.00000052,-0.00000175,0.00000851,0.00003796,0.000004
 60,0.00000139,-0.00000375,-0.00000298,-0.00000169,-0.00000125,-0.00000
 017,-0.00000510,-0.00000410,0.00000124,0.00000105,0.00000266,-0.000000
 48,-0.00029844,-0.00054612,0.00051724,-0.00238580,-0.00012367,-0.00254
 510,0.09828087,-0.00008089,0.00009875,-0.00003107,0.00004856,-0.000053
 10,0.00002125,-0.00001307,0.00002067,0.00000673,0.00002994,-0.00000311
 ,0.00000492,-0.00003660,-0.00000122,0.00001495,-0.00002199,0.00002257,
 0.00000425,-0.00000303,-0.00000134,-0.00001041,-0.00000017,0.00000006,
 0.00000937,-0.00000633,0.00000633,0.00000377,-0.00000770,-0.00000456,-
 0.00001476,0.00002539,-0.00000824,-0.00005510,-0.00001698,0.00000174,0
 .00002479,0.00000211,-0.00000351,0.00000283,-0.00001048,-0.00000030,0.
 00000977,0.00000583,0.00001516,-0.00001963,-0.00002157,0.00002393,0.00
 001868,-0.00006351,-0.00002141,-0.00000565,0.00000277,0.00004351,0.000
 01924,0.00000823,-0.00002971,0.00002857,-0.00001450,-0.00003617,-0.000
 01209,-0.00000256,0.00003819,-0.00003196,0.00048900,-0.00069843,-0.000
 74353,0.00202554,-0.00023795,-0.00222776,0.00721372,0.01126786,-0.0109
 7932,-0.07290377,-0.15408667,0.11451910,-0.01492128,-0.01219744,0.0228
 0670,0.00151956,-0.00514081,-0.00106080,0.00000526,-0.00000484,-0.0000
 0118,-0.00000331,0.00000150,0.00000050,-0.00000193,0.00000092,0.000001
 10,-0.00000221,0.00000150,0.00000399,0.00000166,0.00000308,0.00001165,
 -0.00003801,0.00003108,0.00001443,-0.00000025,-0.00000393,0.00001492,0
 .00000397,-0.00000371,-0.00000240,0.00001596,-0.00000099,0.00000757,-0
 .00000356,0.00000087,-0.00000057,0.00000652,0.00000050,0.00000037,0.00
 000519,0.00000331,0.00000036,0.00000842,-0.00000381,0.00000504,-0.0000
 2961,-0.00001598,-0.00000291,0.00000424,0.00000072,0.00001377,0.000042
 10,-0.00000259,0.00003546,-0.00000426,-0.00000397,-0.00000537,-0.00000
 081,-0.00000711,0.00000151,-0.00000152,-0.00000600,0.00000222,0.000004
 25,0.00000013,0.00000246,0.00033706,0.00036811,-0.00051624,-0.00057443
 ,0.00075754,0.00038234,0.07769050,0.15924202,-0.00050749,-0.00002257,-
 0.00028874,-0.00000718,0.00008608,0.00001172,0.00001520,0.00006469,0.0
 0002064,-0.00005044,-0.00002565,0.00000809,0.00007687,0.00006409,-0.00
 015629,0.00000218,0.00002618,-0.00004504,-0.00000904,0.00000915,0.0000
 1336,0.00001096,-0.00001616,-0.00001579,-0.00000075,-0.00000350,0.0000
 1543,0.00004226,-0.00002276,-0.00000022,0.00000509,-0.00000934,0.00001
 064,0.00000407,0.00000085,0.00000443,-0.00000341,-0.00000245,-0.000005
 33,0.00001529,0.00000439,-0.00001840,-0.00003129,0.00000438,0.00003697
 ,-0.00000914,-0.00002672,-0.00003762,0.00004358,0.00001711,0.00001975,
 -0.00000013,-0.00000072,-0.00000645,0.00000119,0.00001558,-0.00000161,
 -0.00000128,0.00001051,0.00000025,0.00001908,0.00001039,0.00001096,-0.
 00047447,-0.00079326,-0.00022698,0.00515881,-0.00260942,0.00022852,0.0
 0908378,0.01506547,-0.01041917,0.09837028,0.11459685,-0.18999170,-0.00
 046858,-0.00341683,0.00489470,0.00292378,-0.00061068,0.00343814,-0.000
 00619,-0.00000394,-0.00000115,0.00000676,-0.00000297,0.00000019,0.0000
 0427,-0.00000215,-0.00000244,0.00000100,-0.00000222,-0.00000614,-0.000
 00427,0.00000779,-0.00000684,0.00000205,-0.00000825,-0.00000383,0.0000
 0008,0.00000265,-0.00000525,-0.00000447,0.00000288,0.00000097,-0.00000
 279,0.00000006,-0.00000182,0.00000203,-0.00000008,0.00000235,-0.000004
 85,0.00000261,0.00000075,-0.00000808,-0.00000289,-0.00000005,-0.000012
 12,0.00000459,-0.00000563,0.00003759,0.00000642,-0.00000403,0.00000034
 ,0.00000452,-0.00000401,-0.00001352,0.00001441,-0.00001864,0.00000444,
 0.00000237,0.00000267,-0.00000001,0.00000410,-0.00000004,-0.00000032,0
 .00000568,-0.00000072,-0.00000087,-0.00000562,-0.00000043,0.00037492,0
 .00069368,-0.00056724,-0.00248993,-0.00023679,-0.00057804,-0.10974567,
 -0.12292171,0.19456650,-0.00019828,0.00065024,0.00022858,0.00013321,-0
 .00016285,0.00004733,-0.00004939,-0.00000244,0.00001580,0.00008502,0.0
 0001037,0.00001065,-0.00007399,-0.00011645,0.00014323,-0.00000616,0.00
 002884,0.00001827,-0.00001522,0.00001893,-0.00000467,-0.00001714,0.000
 00207,-0.00000221,0.00001909,0.00000530,0.00000569,-0.00007213,0.00004
 357,-0.00001751,0.00000367,0.00001172,0.00000930,-0.00000386,-0.000002
 81,-0.00000781,0.00000027,0.00000174,0.00000556,-0.00000562,0.00000554
 ,0.00000946,0.00001318,0.00000169,-0.00001476,0.00003465,0.00006745,0.
 00001875,-0.00009105,-0.00007991,0.00000234,-0.00001089,0.00004598,0.0
 0000985,0.00000283,-0.00003629,0.00002904,-0.00001319,-0.00003802,-0.0
 0000870,-0.00001458,0.00000143,-0.00004154,0.00452668,-0.00191810,0.00
 430389,-0.00068804,-0.00039716,-0.00065779,0.00561848,0.00057884,0.002
 62330,0.00266091,-0.00078838,0.00197002,-0.12746674,0.06723893,0.12176
 642,-0.00326153,0.00717664,0.00953865,0.00000285,-0.00001270,0.0000004
 5,-0.00000926,0.00000593,0.00000259,-0.00000609,0.00000037,0.00000250,
 -0.00000670,0.00000309,0.00000971,0.00001583,-0.00000332,0.00000882,-0
 .00001979,0.00001242,-0.00001684,-0.00000452,-0.00000017,-0.00000430,0
 .00000552,-0.00000292,-0.00000088,-0.00000012,0.00000009,0.00000240,-0
 .00000520,0.00000771,-0.00001174,0.00000440,-0.00000124,-0.00000140,0.
 00000624,-0.00000014,-0.00000241,0.00000682,-0.00000349,0.00000492,-0.
 00001510,-0.00002621,0.00002549,-0.00000222,0.00000127,0.00001377,0.00
 004640,-0.00000704,0.00003770,-0.00000542,-0.00000770,-0.00000650,0.00
 000299,-0.00000844,-0.00000067,-0.00000250,-0.00000983,0.00000153,0.00
 000362,0.00000564,0.00000181,-0.00071612,0.00000674,-0.00046345,0.0000
 2467,-0.00005323,0.00012464,-0.00265439,-0.00003159,-0.00232300,0.1248
 0248,-0.00055111,0.00040638,0.00059939,0.00004767,-0.00018402,0.000085
 32,0.00001795,0.00002138,0.00004973,-0.00001398,0.00002608,0.00000688,
 -0.00003083,-0.00003725,-0.00000790,-0.00002200,0.00002846,0.00000369,
 0.00000659,0.00000497,-0.00001795,0.00000222,0.00000012,0.00001962,-0.
 00001504,0.00002167,0.00000602,-0.00002840,0.00000602,0.00000499,-0.00
 000566,0.00000861,0.00001186,0.00000314,-0.00000147,-0.00000566,-0.000
 00154,0.00000214,-0.00000921,0.00000339,0.00000304,-0.00000092,0.00000
 787,-0.00000187,0.00000980,0.00004819,0.00008880,-0.00003977,0.0000125
 0,-0.00000399,0.00001760,-0.00000003,-0.00000985,-0.00001194,-0.000006
 37,-0.00000213,-0.00000751,0.00000378,0.00000608,0.00000495,-0.0000056
 3,-0.00002126,0.00000037,-0.00142731,-0.00129521,0.00299595,-0.0004286
 0,-0.00089084,0.00054156,0.00020576,-0.00560290,0.00080660,0.01743762,
 -0.00822588,-0.02401312,0.06732346,-0.11295042,-0.09061721,-0.01092243
 ,0.01072275,0.01498348,-0.00000522,-0.00000763,-0.00000106,-0.00000414
 ,-0.00000018,0.00000082,-0.00000200,-0.00000088,0.00000109,-0.00000307
 ,0.00000434,0.00000306,0.00000755,-0.00000055,-0.00000040,0.00000258,-
 0.00000631,-0.00000163,-0.00000163,0.00000296,-0.00000347,0.00000151,-
 0.00000085,0.00000041,-0.00000370,-0.00000018,-0.00000186,-0.00000156,
 0.00000090,0.00000464,-0.00000101,0.00000009,0.00000123,0.00000012,-0.
 00000107,-0.00000103,-0.00000202,0.00000105,-0.00000063,0.00001444,-0.
 00000872,0.00000586,-0.00000336,0.00000253,-0.00000073,-0.00000053,0.0
 0001125,-0.00000467,-0.00000262,-0.00000255,-0.00000126,-0.00000069,-0
 .00000042,-0.00000081,-0.00000110,-0.00000250,0.00000019,0.00000122,0.
 00000237,-0.00000041,0.00000968,0.00011113,-0.00010728,0.00083754,-0.0
 0052200,-0.00114433,-0.00047295,0.00128834,0.00022262,-0.07207914,0.11
 604573,0.00044081,-0.00064510,-0.00018490,-0.00007883,0.00028618,-0.00
 020999,0.00003803,-0.00000016,-0.00002048,-0.00005581,-0.00003047,-0.0
 0003476,0.00015946,0.00006468,-0.00000545,0.00005636,-0.00002081,-0.00
 005185,-0.00002124,0.00000736,0.00005176,-0.00000142,-0.00000728,-0.00
 005682,0.00003341,-0.00004004,-0.00000586,0.00007512,-0.00002169,-0.00
 000224,-0.00002609,0.00000040,0.00003417,0.00001790,0.00000357,-0.0000
 1392,0.00000090,0.00000515,-0.00003046,0.00001788,-0.00000426,-0.00001
 248,-0.00004512,0.00001469,0.00003300,-0.00001507,-0.00015887,-0.00004
 914,-0.00003334,-0.00000884,-0.00000776,-0.00000909,0.00002142,-0.0000
 0205,0.00000799,0.00002354,0.00001541,-0.00000825,0.00000590,-0.000015
 42,0.00002461,0.00005064,0.00003267,0.00414886,0.00317573,0.00098340,-
 0.00068170,0.00063613,-0.00024212,0.00265493,0.00031696,0.00362993,0.0
 0042811,0.00205884,0.00322165,0.12175591,-0.09046049,-0.20536700,0.011
 16295,-0.01089209,-0.01117746,-0.00001004,0.00000734,0.00000942,0.0000
 1277,-0.00000289,-0.00000046,0.00000710,-0.00000236,-0.00000393,0.0000
 0584,-0.00001223,-0.00001229,-0.00001540,0.00000152,-0.00001845,0.0000
 1842,-0.00002135,-0.00004175,0.00000075,0.00000312,-0.00001443,-0.0000
 0929,0.00000693,0.00000170,-0.00001534,-0.00000097,-0.00000470,0.00000
 172,-0.00000349,0.00002101,-0.00000809,0.00000094,0.00000469,-0.000010
 16,-0.00000454,0.00000017,-0.00001396,0.00000809,-0.00000563,0.0000667
 2,0.00000523,0.00002759,0.00000006,0.00000038,0.00000056,-0.00002108,-
 0.00004159,-0.00002699,0.00000784,0.00000777,0.00000654,0.00000544,0.0
 0000618,-0.00000069,0.00000348,0.00001221,-0.00000228,-0.00000257,-0.0
 0000967,-0.00000137,-0.00045004,-0.00011226,-0.00038829,0.00004947,0.0
 0012320,0.00003515,-0.00230495,-0.00041592,-0.00096781,-0.13481195,0.0
 9619761,0.21154069,-0.00192208,-0.00008560,-0.00210239,-0.00020281,-0.
 00011369,0.00007847,-0.00005597,0.00002844,-0.00004992,-0.00018795,-0.
 00010255,-0.00011428,0.00028071,0.00010020,-0.00057683,0.00005563,-0.0
 0003133,0.00001949,0.00000920,0.00000017,0.00001378,-0.00000685,0.0000
 0441,-0.00000665,0.00002798,0.00002449,-0.00000359,0.00017336,-0.00005
 762,0.00003791,-0.00013035,0.00007126,-0.00017813,-0.00003256,0.000008
 30,0.00001242,0.00000038,-0.00000390,-0.00001443,-0.00002061,-0.000014
 21,0.00002288,0.00000099,0.00005745,-0.00009255,-0.00021469,0.00011248
 ,0.00094577,-0.00156263,-0.00079456,0.00023087,-0.00016639,-0.00030740
 ,-0.00010328,-0.00001060,0.00014457,-0.00016598,0.00003342,0.00021091,
 0.00008016,0.00015543,-0.00039610,-0.00008123,0.00170819,0.01689996,0.
 00054977,0.00263855,0.00134552,0.00582391,-0.00109133,-0.00021393,-0.0
 0002354,0.00396706,-0.00128383,0.00522283,0.00536524,-0.01488999,-0.00
 014357,-0.04690803,0.02997563,0.01094782,-0.00000886,0.00001230,-0.000
 00891,0.00000210,-0.00000209,0.00000021,0.00000290,-0.00000088,-0.0000
 0177,0.00000150,0.00000383,-0.00000307,-0.00001482,0.00004871,0.000036
 62,-0.00037193,0.00051908,-0.00132682,0.00001713,-0.00003306,0.0000776
 2,0.00000675,-0.00000052,-0.00000046,0.00002091,0.00000081,0.00002555,
 -0.00001086,0.00000210,0.00000847,0.00000960,0.00000026,0.00000556,0.0
 0000100,0.00000598,-0.00000078,0.00001408,-0.00000471,0.00001291,0.000
 01365,-0.00006196,0.00008844,0.00000407,0.00000582,0.00002575,-0.00108
 715,0.00003739,0.00010699,0.00003825,0.00002182,0.00003324,0.00001382,
 0.00004704,-0.00001856,-0.00003425,0.00003032,-0.00000954,-0.00001555,
 0.00003941,-0.00005189,0.00027553,0.00091286,0.00007642,-0.00065954,-0
 .00002676,-0.00056548,0.00007591,-0.00067984,-0.00002663,-0.00258456,0
 .00004887,-0.00255400,0.04238702,-0.00055238,-0.00056629,0.00073649,-0
 .00005340,0.00005100,-0.00010909,-0.00001301,0.00000194,0.00002172,-0.
 00006983,0.00000484,-0.00002247,0.00011302,0.00012162,-0.00011857,-0.0
 0001546,0.00002818,-0.00002165,-0.00000350,0.00000845,0.00000840,-0.00
 000647,-0.00000530,-0.00001087,0.00000993,-0.00000831,-0.00001747,0.00
 009915,-0.00020140,-0.00011837,0.00031711,-0.00036231,-0.00016685,-0.0
 0012245,-0.00000879,0.00024642,-0.00000572,-0.00002551,-0.00002684,-0.
 00000967,-0.00000459,-0.00002877,-0.00006112,0.00003097,-0.00002367,-0
 .00066983,0.00009408,0.00092275,-0.00218433,-0.00061708,-0.00006507,-0
 .00020135,0.00039477,0.00009125,0.00019905,-0.00018046,0.00030612,-0.0
 0017029,-0.00033755,-0.00017293,0.00024751,0.00050412,-0.00027591,0.00
 009826,-0.00909455,0.00057157,0.00144186,0.00104566,-0.00185506,-0.000
 12715,0.00058066,0.00008876,-0.00163335,0.00035965,0.00278096,0.003178
 26,-0.01312100,-0.00291044,0.03148206,-0.34552283,-0.01872478,-0.00000
 367,0.00000183,0.00000057,0.00000502,-0.00000202,-0.00000111,0.0000015
 6,-0.00000094,-0.00000160,0.00000442,-0.00000448,-0.00000472,-0.000024
 71,0.00005634,0.00003805,0.00028147,0.00036349,0.00121850,0.00003418,-
 0.00005672,0.00021483,0.00001532,-0.00001428,-0.00001632,0.00013516,-0
 .00001809,0.00005332,-0.00000556,0.00001388,0.00000788,0.00002371,0.00
 001660,0.00000563,0.00000564,0.00001180,0.00000344,-0.00000531,-0.0000
 0333,0.00000834,0.00005628,-0.00004289,0.00002856,0.00001166,0.0000295
 4,0.00002371,-0.00014978,-0.00031256,0.00050549,-0.00002172,0.00001794
 ,0.00000090,0.00002286,-0.00002601,0.00000324,-0.00002925,0.00000927,0
 .00000883,0.00002060,-0.00000389,-0.00000738,-0.00002539,-0.00044835,0
 .00018358,-0.00002171,-0.00010672,-0.00002178,0.00014115,-0.00066150,-
 0.00020342,-0.00014299,0.00096376,-0.00013431,-0.03161586,0.36704737,-
 0.00236361,-0.00065237,-0.00025072,0.00004446,-0.00016091,0.00023844,-
 0.00012607,0.00011053,0.00000614,-0.00007723,-0.00014140,-0.00011641,0
 .00024844,0.00025371,-0.00046585,-0.00004026,0.00005845,0.00003467,0.0
 0000211,-0.00000056,-0.00001723,-0.00001665,0.00000854,0.00002577,0.00
 000205,0.00001504,0.00001015,0.00012537,-0.00025977,-0.00006066,0.0000
 7509,0.00014961,-0.00065045,-0.00013614,0.00004468,0.00020463,0.000004
 08,-0.00004793,0.00001235,-0.00002358,-0.00000174,-0.00001669,-0.00005
 795,0.00002445,-0.00004452,0.00014149,0.00037967,-0.00015744,0.0006057
 4,0.00030876,0.00030156,0.00005901,0.00012689,-0.00001580,-0.00000834,
 -0.00010029,0.00006865,-0.00000807,-0.00008600,-0.00008550,-0.00003547
 ,0.00024141,-0.00011686,0.00168311,-0.02302143,0.00289734,0.00565447,-
 0.00135591,-0.00113869,0.00001757,0.00011644,-0.00116980,0.00534239,0.
 00250911,-0.00028387,-0.00192024,0.02325949,0.00489531,0.01166644,-0.0
 1876545,-0.05346123,0.00000556,-0.00000990,-0.00000598,-0.00000988,0.0
 0000057,0.00000182,-0.00000379,0.00000377,0.00000160,-0.00000772,0.000
 00464,0.00001099,-0.00001176,0.00009468,0.00007245,-0.00135568,0.00072
 482,-0.00132382,-0.00003216,0.00000012,0.00006817,0.00002556,-0.000017
 26,-0.00001572,0.00012551,-0.00000642,0.00006005,-0.00001375,0.0000038
 0,0.00000702,0.00003706,0.00001998,0.00000456,0.00001486,0.00001716,0.
 00000223,0.00000726,-0.00000584,0.00001391,0.00006094,-0.00006402,0.00
 007046,0.00001539,0.00003793,0.00003783,-0.00039686,0.00000343,0.00004
 230,-0.00001028,-0.00002748,-0.00002734,-0.00002479,-0.00001403,0.0000
 0125,-0.00000640,-0.00002611,0.00001244,0.00000528,-0.00000756,0.00001
 191,0.00020719,-0.00116906,0.00012663,-0.00056979,-0.00003759,-0.00024
 633,-0.00006607,0.00106578,0.00010044,-0.00259430,-0.00058458,-0.00067
 026,-0.01625962,0.01698015,0.05100010\\0.00001545,0.00001372,-0.000004
 96,-0.00002106,0.00000209,-0.00000967,-0.00000322,-0.00000574,0.000007
 04,-0.00001485,0.00000693,0.00001532,0.00003509,0.00000607,-0.00000575
 ,-0.00000625,0.00000765,0.00000966,0.00000886,-0.00000966,-0.00000674,
 0.00000043,-0.00000363,0.00000411,-0.00000951,-0.00000135,-0.00000784,
 -0.00001310,-0.00000473,0.00001258,0.00001602,-0.00001075,-0.00000215,
 -0.00000496,0.00000640,0.00000153,0.00000625,0.00000988,0.00000257,-0.
 00000796,-0.00000027,-0.00000214,-0.00000254,-0.00002642,-0.00001624,0
 .00000764,-0.00002155,0.00003733,0.00000421,-0.00000563,-0.00001671,0.
 00000739,0.00001338,-0.00000677,0.00000259,-0.00001420,0.00003004,-0.0
 0000813,-0.00002109,-0.00001743,0.00001473,0.00003649,0.00000369,0.000
 00605,-0.00002854,-0.00001167,-0.00000307,0.00000513,-0.00001344,-0.00
 001672,-0.00000054,-0.00000014,0.00000547,-0.00000517,0.00001145,-0.00
 000566,-0.00000707,-0.00000030,0.00000111,-0.00000204,-0.00000879,-0.0
 0000373,-0.00000663,-0.00000367,-0.00000473,-0.00000496,-0.00000169,-0
 .00000420,-0.00000153,-0.00000445,-0.00000058,0.00000129,-0.00000139,-
 0.00000660,0.00000898,-0.00000624,-0.00000105,0.00000750,-0.00000787,-
 0.00000234,0.00000816,0.00000490,0.00000087,0.00000288,0.00000397,0.00
 000587,0.00000578,0.00000424,0.00000096,0.00000651,0.00000074,-0.00000
 027,0.00000892,0.00000022,-0.00000264,0.00001049,-0.00000307,-0.000000
 61,0.00000705,0.00000024,0.00000026,0.00000178,-0.00000026,-0.00000446
 ,0.00001901,0.00000497,0.00000146,-0.00000220,0.00000038,0.00000159,-0
 .00000662,0.00000446,0.00000806,-0.00000486,0.00000467,0.00000607,0.00
 000004,0.00000822,0.00000179,-0.00000391,-0.00000120,-0.00000225,0.000
 00298,-0.00000002,-0.00000373,-0.00000243,-0.00000087,-0.00000744,-0.0
 0000498,-0.00001077,0.00000049,0.00000052,-0.00000369,0.00000298,0.000
 00685,0.00000357\\\@


 LEARN FROM YESTERDAY,
 LIVE FOR TODAY,
 LOOK TO TOMORROW,
 REST THIS AFTERNOON.

           -- SNOOPY
 Job cpu time:      27 days 23 hours 33 minutes 58.3 seconds.
 File lengths (MBytes):  RWF=   6008 Int=      0 D2E=      0 Chk=     56 Scr=      1
 Normal termination of Gaussian 09 at Wed Jun 23 05:24:58 2021.
