 Entering Gaussian System, Link 0=g09
 Input=NHC23.gjf
 Output=NHC23.log
 Initial command:
 /usr/local/gqt/g09/l1.exe "/usr/local/gqt/lixogaussian/Gau-992.inp" -scrdir="/usr/local/gqt/lixogaussian/"
 Entering Link 1 = /usr/local/gqt/g09/l1.exe PID=       994.
  
 Copyright (c) 1988,1990,1992,1993,1995,1998,2003,2009,2013,
            Gaussian, Inc.  All Rights Reserved.
  
 This is part of the Gaussian(R) 09 program.  It is based on
 the Gaussian(R) 03 system (copyright 2003, Gaussian, Inc.),
 the Gaussian(R) 98 system (copyright 1998, Gaussian, Inc.),
 the Gaussian(R) 94 system (copyright 1995, Gaussian, Inc.),
 the Gaussian 92(TM) system (copyright 1992, Gaussian, Inc.),
 the Gaussian 90(TM) system (copyright 1990, Gaussian, Inc.),
 the Gaussian 88(TM) system (copyright 1988, Gaussian, Inc.),
 the Gaussian 86(TM) system (copyright 1986, Carnegie Mellon
 University), and the Gaussian 82(TM) system (copyright 1983,
 Carnegie Mellon University). Gaussian is a federally registered
 trademark of Gaussian, Inc.
  
 This software contains proprietary and confidential information,
 including trade secrets, belonging to Gaussian, Inc.
  
 This software is provided under written license and may be
 used, copied, transmitted, or stored only in accord with that
 written license.
  
 The following legend is applicable only to US Government
 contracts under FAR:
  
                    RESTRICTED RIGHTS LEGEND
  
 Use, reproduction and disclosure by the US Government is
 subject to restrictions as set forth in subparagraphs (a)
 and (c) of the Commercial Computer Software - Restricted
 Rights clause in FAR 52.227-19.
  
 Gaussian, Inc.
 340 Quinnipiac St., Bldg. 40, Wallingford CT 06492
  
  
 ---------------------------------------------------------------
 Warning -- This program may not be used in any manner that
 competes with the business of Gaussian, Inc. or will provide
 assistance to any competitor of Gaussian, Inc.  The licensee
 of this program is prohibited from giving any competitor of
 Gaussian, Inc. access to this program.  By using this program,
 the user acknowledges that Gaussian, Inc. is engaged in the
 business of creating and licensing software in the field of
 computational chemistry and represents and warrants to the
 licensee that it is not a competitor of Gaussian, Inc. and that
 it will not use this program in any manner prohibited above.
 ---------------------------------------------------------------
  

 Cite this work as:
 Gaussian 09, Revision D.01,
 M. J. Frisch, G. W. Trucks, H. B. Schlegel, G. E. Scuseria, 
 M. A. Robb, J. R. Cheeseman, G. Scalmani, V. Barone, B. Mennucci, 
 G. A. Petersson, H. Nakatsuji, M. Caricato, X. Li, H. P. Hratchian, 
 A. F. Izmaylov, J. Bloino, G. Zheng, J. L. Sonnenberg, M. Hada, 
 M. Ehara, K. Toyota, R. Fukuda, J. Hasegawa, M. Ishida, T. Nakajima, 
 Y. Honda, O. Kitao, H. Nakai, T. Vreven, J. A. Montgomery, Jr., 
 J. E. Peralta, F. Ogliaro, M. Bearpark, J. J. Heyd, E. Brothers, 
 K. N. Kudin, V. N. Staroverov, T. Keith, R. Kobayashi, J. Normand, 
 K. Raghavachari, A. Rendell, J. C. Burant, S. S. Iyengar, J. Tomasi, 
 M. Cossi, N. Rega, J. M. Millam, M. Klene, J. E. Knox, J. B. Cross, 
 V. Bakken, C. Adamo, J. Jaramillo, R. Gomperts, R. E. Stratmann, 
 O. Yazyev, A. J. Austin, R. Cammi, C. Pomelli, J. W. Ochterski, 
 R. L. Martin, K. Morokuma, V. G. Zakrzewski, G. A. Voth, 
 P. Salvador, J. J. Dannenberg, S. Dapprich, A. D. Daniels, 
 O. Farkas, J. B. Foresman, J. V. Ortiz, J. Cioslowski, 
 and D. J. Fox, Gaussian, Inc., Wallingford CT, 2013.
 
 ******************************************
 Gaussian 09:  ES64L-G09RevD.01 24-Apr-2013
                21-Jun-2021 
 ******************************************
 %nprocshared=16
 Will use up to   16 processors via shared memory.
 %mem=25GB
 %chk=NHC23.chk
 ----------------------------------------------------------
 #p opt freq n12sx/6-311+g(d,p) scrf=(iefpcm,solvent=water)
 ----------------------------------------------------------
 1/14=-1,18=20,19=15,26=3,38=1/1,3;
 2/9=110,12=2,17=6,18=5,40=1/2;
 3/5=4,6=6,7=111,11=2,16=1,25=1,30=1,70=2201,71=1,72=1,74=-69/1,2,3;
 4//1;
 5/5=2,38=5,53=1/2;
 6/7=2,8=2,9=2,10=2,28=1/1;
 7//1,2,3,16;
 1/14=-1,18=20,19=15,26=3/3(2);
 2/9=110/2;
 99//99;
 2/9=110/2;
 3/5=4,6=6,7=111,11=2,16=1,25=1,30=1,70=2205,71=1,72=1,74=-69/1,2,3;
 4/5=5,16=3,69=1/1;
 5/5=2,38=5,53=1/2;
 7//1,2,3,16;
 1/14=-1,18=20,19=15,26=3/3(-5);
 2/9=110/2;
 6/7=2,8=2,9=2,10=2,19=2,28=1/1;
 99/9=1/99;
 Leave Link    1 at Mon Jun 21 00:48:25 2021, MaxMem=  3355443200 cpu:         0.8
 (Enter /usr/local/gqt/g09/l101.exe)
 -----
 TITLE
 -----
 Symbolic Z-matrix:
 Charge =  0 Multiplicity = 1
 6                    -0.35369   0.76132  -0.63797 
 6                    -1.86367   0.65772  -0.80755 
 6                    -2.24229  -0.57258   0.00642 
 6                    -0.92867  -1.18267   0.3752 
 7                     0.07285  -0.60265  -0.47826 
 6                    -3.07139  -1.53907  -0.82907 
 6                    -3.09115  -0.23053   1.22377 
 6                     0.28708   1.3876   -1.86952 
 6                     0.0451    1.64196   0.53888 
 6                     1.3344   -0.58828   0.21175 
 6                     1.20835   0.2386    1.4845 
 6                     2.39779   0.0263   -0.68882 
 6                     1.733    -2.01383   0.57017 
 1                    -2.36927   1.56585  -0.40952 
 1                    -2.17047   0.57676  -1.87436 
 1                    -3.33588  -2.42869  -0.21475 
 1                    -4.00277  -1.0319   -1.16682 
 1                    -2.48169  -1.86277  -1.71578 
 1                    -3.25914   0.86904   1.26249 
 1                    -4.07133  -0.75268   1.15048 
 1                    -2.56359  -0.55781   2.14753 
 1                     1.38843   1.45286  -1.72276 
 1                    -0.12726   2.40901  -2.02381 
 1                     0.06845   0.75893  -2.76156 
 1                    -0.24405   1.14318   1.49091 
 1                     1.14629   1.80304   0.52462 
 1                    -0.47525   2.62276   0.46117 
 1                     2.16774   0.2025    2.04755 
 1                     0.97406   1.29379   1.21906 
 1                     0.39152  -0.176     2.1167 
 1                     2.49072  -0.57728  -1.61931 
 1                     3.37437   0.03683  -0.155 
 1                     2.10556   1.06797  -0.95014 
 1                     1.83517  -2.10446   1.67476 
 1                     0.94994  -2.71876   0.21148 
 1                     2.70471  -2.25993   0.08646 
 
 NAtoms=     36 NQM=       36 NQMF=       0 NMMI=      0 NMMIF=      0
                NMic=       0 NMicF=      0.
                    Isotopes and Nuclear Properties:
 (Nuclear quadrupole moments (NQMom) in fm**2, nuclear magnetic moments (NMagM)
  in nuclear magnetons)

  Atom         1           2           3           4           5           6           7           8           9          10
 IAtWgt=          12          12          12          12          14          12          12          12          12          12
 AtmWgt=  12.0000000  12.0000000  12.0000000  12.0000000  14.0030740  12.0000000  12.0000000  12.0000000  12.0000000  12.0000000
 NucSpn=           0           0           0           0           2           0           0           0           0           0
 AtZEff=   0.0000000   0.0000000   0.0000000   0.0000000   0.0000000   0.0000000   0.0000000   0.0000000   0.0000000   0.0000000
 NQMom=    0.0000000   0.0000000   0.0000000   0.0000000   2.0440000   0.0000000   0.0000000   0.0000000   0.0000000   0.0000000
 NMagM=    0.0000000   0.0000000   0.0000000   0.0000000   0.4037610   0.0000000   0.0000000   0.0000000   0.0000000   0.0000000
 AtZNuc=   6.0000000   6.0000000   6.0000000   6.0000000   7.0000000   6.0000000   6.0000000   6.0000000   6.0000000   6.0000000

  Atom        11          12          13          14          15          16          17          18          19          20
 IAtWgt=          12          12          12           1           1           1           1           1           1           1
 AtmWgt=  12.0000000  12.0000000  12.0000000   1.0078250   1.0078250   1.0078250   1.0078250   1.0078250   1.0078250   1.0078250
 NucSpn=           0           0           0           1           1           1           1           1           1           1
 AtZEff=   0.0000000   0.0000000   0.0000000   0.0000000   0.0000000   0.0000000   0.0000000   0.0000000   0.0000000   0.0000000
 NQMom=    0.0000000   0.0000000   0.0000000   0.0000000   0.0000000   0.0000000   0.0000000   0.0000000   0.0000000   0.0000000
 NMagM=    0.0000000   0.0000000   0.0000000   2.7928460   2.7928460   2.7928460   2.7928460   2.7928460   2.7928460   2.7928460
 AtZNuc=   6.0000000   6.0000000   6.0000000   1.0000000   1.0000000   1.0000000   1.0000000   1.0000000   1.0000000   1.0000000

  Atom        21          22          23          24          25          26          27          28          29          30
 IAtWgt=           1           1           1           1           1           1           1           1           1           1
 AtmWgt=   1.0078250   1.0078250   1.0078250   1.0078250   1.0078250   1.0078250   1.0078250   1.0078250   1.0078250   1.0078250
 NucSpn=           1           1           1           1           1           1           1           1           1           1
 AtZEff=   0.0000000   0.0000000   0.0000000   0.0000000   0.0000000   0.0000000   0.0000000   0.0000000   0.0000000   0.0000000
 NQMom=    0.0000000   0.0000000   0.0000000   0.0000000   0.0000000   0.0000000   0.0000000   0.0000000   0.0000000   0.0000000
 NMagM=    2.7928460   2.7928460   2.7928460   2.7928460   2.7928460   2.7928460   2.7928460   2.7928460   2.7928460   2.7928460
 AtZNuc=   1.0000000   1.0000000   1.0000000   1.0000000   1.0000000   1.0000000   1.0000000   1.0000000   1.0000000   1.0000000

  Atom        31          32          33          34          35          36
 IAtWgt=           1           1           1           1           1           1
 AtmWgt=   1.0078250   1.0078250   1.0078250   1.0078250   1.0078250   1.0078250
 NucSpn=           1           1           1           1           1           1
 AtZEff=   0.0000000   0.0000000   0.0000000   0.0000000   0.0000000   0.0000000
 NQMom=    0.0000000   0.0000000   0.0000000   0.0000000   0.0000000   0.0000000
 NMagM=    2.7928460   2.7928460   2.7928460   2.7928460   2.7928460   2.7928460
 AtZNuc=   1.0000000   1.0000000   1.0000000   1.0000000   1.0000000   1.0000000
 Leave Link  101 at Mon Jun 21 00:48:26 2021, MaxMem=  3355443200 cpu:         6.9
 (Enter /usr/local/gqt/g09/l103.exe)

 GradGradGradGradGradGradGradGradGradGradGradGradGradGradGradGradGradGrad
 Berny optimization.
 Initialization pass.
                           ----------------------------
                           !    Initial Parameters    !
                           ! (Angstroms and Degrees)  !
 --------------------------                            --------------------------
 ! Name  Definition              Value          Derivative Info.                !
 --------------------------------------------------------------------------------
 ! R1    R(1,2)                  1.523          estimate D2E/DX2                !
 ! R2    R(1,5)                  1.438          estimate D2E/DX2                !
 ! R3    R(1,8)                  1.523          estimate D2E/DX2                !
 ! R4    R(1,9)                  1.523          estimate D2E/DX2                !
 ! R5    R(2,3)                  1.523          estimate D2E/DX2                !
 ! R6    R(2,14)                 1.113          estimate D2E/DX2                !
 ! R7    R(2,15)                 1.113          estimate D2E/DX2                !
 ! R8    R(3,4)                  1.4946         estimate D2E/DX2                !
 ! R9    R(3,6)                  1.523          estimate D2E/DX2                !
 ! R10   R(3,7)                  1.523          estimate D2E/DX2                !
 ! R11   R(4,5)                  1.438          estimate D2E/DX2                !
 ! R12   R(5,10)                 1.438          estimate D2E/DX2                !
 ! R13   R(6,16)                 1.113          estimate D2E/DX2                !
 ! R14   R(6,17)                 1.113          estimate D2E/DX2                !
 ! R15   R(6,18)                 1.113          estimate D2E/DX2                !
 ! R16   R(7,19)                 1.113          estimate D2E/DX2                !
 ! R17   R(7,20)                 1.113          estimate D2E/DX2                !
 ! R18   R(7,21)                 1.113          estimate D2E/DX2                !
 ! R19   R(8,22)                 1.113          estimate D2E/DX2                !
 ! R20   R(8,23)                 1.113          estimate D2E/DX2                !
 ! R21   R(8,24)                 1.113          estimate D2E/DX2                !
 ! R22   R(9,25)                 1.113          estimate D2E/DX2                !
 ! R23   R(9,26)                 1.113          estimate D2E/DX2                !
 ! R24   R(9,27)                 1.113          estimate D2E/DX2                !
 ! R25   R(9,29)                 1.2028         estimate D2E/DX2                !
 ! R26   R(10,11)                1.523          estimate D2E/DX2                !
 ! R27   R(10,12)                1.523          estimate D2E/DX2                !
 ! R28   R(10,13)                1.523          estimate D2E/DX2                !
 ! R29   R(11,28)                1.113          estimate D2E/DX2                !
 ! R30   R(11,29)                1.113          estimate D2E/DX2                !
 ! R31   R(11,30)                1.113          estimate D2E/DX2                !
 ! R32   R(12,31)                1.113          estimate D2E/DX2                !
 ! R33   R(12,32)                1.113          estimate D2E/DX2                !
 ! R34   R(12,33)                1.113          estimate D2E/DX2                !
 ! R35   R(13,34)                1.113          estimate D2E/DX2                !
 ! R36   R(13,35)                1.113          estimate D2E/DX2                !
 ! R37   R(13,36)                1.113          estimate D2E/DX2                !
 ! A1    A(2,1,5)              104.0            estimate D2E/DX2                !
 ! A2    A(2,1,8)              110.7973         estimate D2E/DX2                !
 ! A3    A(2,1,9)              112.6424         estimate D2E/DX2                !
 ! A4    A(5,1,8)              110.7972         estimate D2E/DX2                !
 ! A5    A(5,1,9)              112.6423         estimate D2E/DX2                !
 ! A6    A(8,1,9)              106.0753         estimate D2E/DX2                !
 ! A7    A(1,2,3)              104.0            estimate D2E/DX2                !
 ! A8    A(1,2,14)             110.7972         estimate D2E/DX2                !
 ! A9    A(1,2,15)             112.6423         estimate D2E/DX2                !
 ! A10   A(3,2,14)             110.7973         estimate D2E/DX2                !
 ! A11   A(3,2,15)             112.6424         estimate D2E/DX2                !
 ! A12   A(14,2,15)            106.0753         estimate D2E/DX2                !
 ! A13   A(2,3,4)              104.0705         estimate D2E/DX2                !
 ! A14   A(2,3,6)              110.7802         estimate D2E/DX2                !
 ! A15   A(2,3,7)              112.602          estimate D2E/DX2                !
 ! A16   A(4,3,6)              110.7802         estimate D2E/DX2                !
 ! A17   A(4,3,7)              112.6019         estimate D2E/DX2                !
 ! A18   A(6,3,7)              106.1167         estimate D2E/DX2                !
 ! A19   A(3,4,5)              107.5203         estimate D2E/DX2                !
 ! A20   A(1,5,4)              103.9999         estimate D2E/DX2                !
 ! A21   A(1,5,10)             107.7            estimate D2E/DX2                !
 ! A22   A(4,5,10)             109.2843         estimate D2E/DX2                !
 ! A23   A(3,6,16)             109.5            estimate D2E/DX2                !
 ! A24   A(3,6,17)             109.4418         estimate D2E/DX2                !
 ! A25   A(3,6,18)             109.4618         estimate D2E/DX2                !
 ! A26   A(16,6,17)            109.4419         estimate D2E/DX2                !
 ! A27   A(16,6,18)            109.4618         estimate D2E/DX2                !
 ! A28   A(17,6,18)            109.52           estimate D2E/DX2                !
 ! A29   A(3,7,19)             109.4999         estimate D2E/DX2                !
 ! A30   A(3,7,20)             109.4419         estimate D2E/DX2                !
 ! A31   A(3,7,21)             109.4619         estimate D2E/DX2                !
 ! A32   A(19,7,20)            109.4418         estimate D2E/DX2                !
 ! A33   A(19,7,21)            109.4619         estimate D2E/DX2                !
 ! A34   A(20,7,21)            109.52           estimate D2E/DX2                !
 ! A35   A(1,8,22)             109.5001         estimate D2E/DX2                !
 ! A36   A(1,8,23)             109.4418         estimate D2E/DX2                !
 ! A37   A(1,8,24)             109.4619         estimate D2E/DX2                !
 ! A38   A(22,8,23)            109.4418         estimate D2E/DX2                !
 ! A39   A(22,8,24)            109.4618         estimate D2E/DX2                !
 ! A40   A(23,8,24)            109.52           estimate D2E/DX2                !
 ! A41   A(1,9,25)             109.5            estimate D2E/DX2                !
 ! A42   A(1,9,26)             109.4419         estimate D2E/DX2                !
 ! A43   A(1,9,27)             109.4619         estimate D2E/DX2                !
 ! A44   A(1,9,29)             118.1513         estimate D2E/DX2                !
 ! A45   A(25,9,26)            109.4418         estimate D2E/DX2                !
 ! A46   A(25,9,27)            109.4618         estimate D2E/DX2                !
 ! A47   A(25,9,29)             65.6202         estimate D2E/DX2                !
 ! A48   A(26,9,27)            109.52           estimate D2E/DX2                !
 ! A49   A(26,9,29)             44.3594         estimate D2E/DX2                !
 ! A50   A(27,9,29)            130.9672         estimate D2E/DX2                !
 ! A51   A(5,10,11)            109.5            estimate D2E/DX2                !
 ! A52   A(5,10,12)            109.4418         estimate D2E/DX2                !
 ! A53   A(5,10,13)            109.4618         estimate D2E/DX2                !
 ! A54   A(11,10,12)           109.4418         estimate D2E/DX2                !
 ! A55   A(11,10,13)           109.4619         estimate D2E/DX2                !
 ! A56   A(12,10,13)           109.52           estimate D2E/DX2                !
 ! A57   A(10,11,28)           109.5            estimate D2E/DX2                !
 ! A58   A(10,11,29)           109.4418         estimate D2E/DX2                !
 ! A59   A(10,11,30)           109.4618         estimate D2E/DX2                !
 ! A60   A(28,11,29)           109.4418         estimate D2E/DX2                !
 ! A61   A(28,11,30)           109.4618         estimate D2E/DX2                !
 ! A62   A(29,11,30)           109.52           estimate D2E/DX2                !
 ! A63   A(10,12,31)           109.5            estimate D2E/DX2                !
 ! A64   A(10,12,32)           109.4418         estimate D2E/DX2                !
 ! A65   A(10,12,33)           109.4618         estimate D2E/DX2                !
 ! A66   A(31,12,32)           109.4418         estimate D2E/DX2                !
 ! A67   A(31,12,33)           109.4619         estimate D2E/DX2                !
 ! A68   A(32,12,33)           109.52           estimate D2E/DX2                !
 ! A69   A(10,13,34)           109.5            estimate D2E/DX2                !
 ! A70   A(10,13,35)           109.4419         estimate D2E/DX2                !
 ! A71   A(10,13,36)           109.4618         estimate D2E/DX2                !
 ! A72   A(34,13,35)           109.4418         estimate D2E/DX2                !
 ! A73   A(34,13,36)           109.4619         estimate D2E/DX2                !
 ! A74   A(35,13,36)           109.52           estimate D2E/DX2                !
 ! A75   A(9,29,11)            124.8798         estimate D2E/DX2                !
 ! D1    D(5,1,2,3)             30.5998         estimate D2E/DX2                !
 ! D2    D(5,1,2,14)           149.6867         estimate D2E/DX2                !
 ! D3    D(5,1,2,15)           -91.6694         estimate D2E/DX2                !
 ! D4    D(8,1,2,3)            149.6866         estimate D2E/DX2                !
 ! D5    D(8,1,2,14)           -91.2265         estimate D2E/DX2                !
 ! D6    D(8,1,2,15)            27.4174         estimate D2E/DX2                !
 ! D7    D(9,1,2,3)            -91.6694         estimate D2E/DX2                !
 ! D8    D(9,1,2,14)            27.4174         estimate D2E/DX2                !
 ! D9    D(9,1,2,15)           146.0613         estimate D2E/DX2                !
 ! D10   D(2,1,5,4)            -41.0139         estimate D2E/DX2                !
 ! D11   D(2,1,5,10)          -156.9169         estimate D2E/DX2                !
 ! D12   D(8,1,5,4)           -160.1007         estimate D2E/DX2                !
 ! D13   D(8,1,5,10)            83.9963         estimate D2E/DX2                !
 ! D14   D(9,1,5,4)             81.2554         estimate D2E/DX2                !
 ! D15   D(9,1,5,10)           -34.6476         estimate D2E/DX2                !
 ! D16   D(2,1,8,22)          -180.0            estimate D2E/DX2                !
 ! D17   D(2,1,8,23)            60.0364         estimate D2E/DX2                !
 ! D18   D(2,1,8,24)           -59.9996         estimate D2E/DX2                !
 ! D19   D(5,1,8,22)           -65.0974         estimate D2E/DX2                !
 ! D20   D(5,1,8,23)           174.9389         estimate D2E/DX2                !
 ! D21   D(5,1,8,24)            54.9029         estimate D2E/DX2                !
 ! D22   D(9,1,8,22)            57.4513         estimate D2E/DX2                !
 ! D23   D(9,1,8,23)           -62.5124         estimate D2E/DX2                !
 ! D24   D(9,1,8,24)           177.4517         estimate D2E/DX2                !
 ! D25   D(2,1,9,25)            68.3252         estimate D2E/DX2                !
 ! D26   D(2,1,9,26)          -171.7112         estimate D2E/DX2                !
 ! D27   D(2,1,9,27)           -51.6752         estimate D2E/DX2                !
 ! D28   D(2,1,9,29)           140.4369         estimate D2E/DX2                !
 ! D29   D(5,1,9,25)           -48.9335         estimate D2E/DX2                !
 ! D30   D(5,1,9,26)            71.0301         estimate D2E/DX2                !
 ! D31   D(5,1,9,27)          -168.934          estimate D2E/DX2                !
 ! D32   D(5,1,9,29)            23.1781         estimate D2E/DX2                !
 ! D33   D(8,1,9,25)          -170.3041         estimate D2E/DX2                !
 ! D34   D(8,1,9,26)           -50.3405         estimate D2E/DX2                !
 ! D35   D(8,1,9,27)            69.6955         estimate D2E/DX2                !
 ! D36   D(8,1,9,29)           -98.1925         estimate D2E/DX2                !
 ! D37   D(1,2,3,4)             -8.8722         estimate D2E/DX2                !
 ! D38   D(1,2,3,6)           -127.9708         estimate D2E/DX2                !
 ! D39   D(1,2,3,7)            113.3711         estimate D2E/DX2                !
 ! D40   D(14,2,3,4)          -127.959          estimate D2E/DX2                !
 ! D41   D(14,2,3,6)           112.9424         estimate D2E/DX2                !
 ! D42   D(14,2,3,7)            -5.7157         estimate D2E/DX2                !
 ! D43   D(15,2,3,4)           113.397          estimate D2E/DX2                !
 ! D44   D(15,2,3,6)            -5.7015         estimate D2E/DX2                !
 ! D45   D(15,2,3,7)          -124.3597         estimate D2E/DX2                !
 ! D46   D(2,3,4,5)            -15.9561         estimate D2E/DX2                !
 ! D47   D(6,3,4,5)            103.1425         estimate D2E/DX2                !
 ! D48   D(7,3,4,5)           -138.1994         estimate D2E/DX2                !
 ! D49   D(2,3,6,16)           180.0            estimate D2E/DX2                !
 ! D50   D(2,3,6,17)           -60.0364         estimate D2E/DX2                !
 ! D51   D(2,3,6,18)            59.9996         estimate D2E/DX2                !
 ! D52   D(4,3,6,16)            65.0315         estimate D2E/DX2                !
 ! D53   D(4,3,6,17)          -175.0048         estimate D2E/DX2                !
 ! D54   D(4,3,6,18)           -54.9689         estimate D2E/DX2                !
 ! D55   D(7,3,6,16)           -57.4842         estimate D2E/DX2                !
 ! D56   D(7,3,6,17)            62.4794         estimate D2E/DX2                !
 ! D57   D(7,3,6,18)          -177.4846         estimate D2E/DX2                !
 ! D58   D(2,3,7,19)             0.0            estimate D2E/DX2                !
 ! D59   D(2,3,7,20)           119.9636         estimate D2E/DX2                !
 ! D60   D(2,3,7,21)          -120.0004         estimate D2E/DX2                !
 ! D61   D(4,3,7,19)           117.2939         estimate D2E/DX2                !
 ! D62   D(4,3,7,20)          -122.7425         estimate D2E/DX2                !
 ! D63   D(4,3,7,21)            -2.7065         estimate D2E/DX2                !
 ! D64   D(6,3,7,19)          -121.3531         estimate D2E/DX2                !
 ! D65   D(6,3,7,20)            -1.3895         estimate D2E/DX2                !
 ! D66   D(6,3,7,21)           118.6465         estimate D2E/DX2                !
 ! D67   D(3,4,5,1)             36.048          estimate D2E/DX2                !
 ! D68   D(3,4,5,10)           150.8323         estimate D2E/DX2                !
 ! D69   D(1,5,10,11)           52.3771         estimate D2E/DX2                !
 ! D70   D(1,5,10,12)          -67.5865         estimate D2E/DX2                !
 ! D71   D(1,5,10,13)          172.3775         estimate D2E/DX2                !
 ! D72   D(4,5,10,11)          -59.9999         estimate D2E/DX2                !
 ! D73   D(4,5,10,12)         -179.9636         estimate D2E/DX2                !
 ! D74   D(4,5,10,13)           60.0005         estimate D2E/DX2                !
 ! D75   D(1,9,29,11)          -36.8768         estimate D2E/DX2                !
 ! D76   D(25,9,29,11)          63.0943         estimate D2E/DX2                !
 ! D77   D(26,9,29,11)        -126.4611         estimate D2E/DX2                !
 ! D78   D(27,9,29,11)         158.3122         estimate D2E/DX2                !
 ! D79   D(5,10,11,28)         176.8338         estimate D2E/DX2                !
 ! D80   D(5,10,11,29)         -63.2026         estimate D2E/DX2                !
 ! D81   D(5,10,11,30)          56.8334         estimate D2E/DX2                !
 ! D82   D(12,10,11,28)        -63.2025         estimate D2E/DX2                !
 ! D83   D(12,10,11,29)         56.761          estimate D2E/DX2                !
 ! D84   D(12,10,11,30)        176.7971         estimate D2E/DX2                !
 ! D85   D(13,10,11,28)         56.8335         estimate D2E/DX2                !
 ! D86   D(13,10,11,29)        176.797          estimate D2E/DX2                !
 ! D87   D(13,10,11,30)        -63.1669         estimate D2E/DX2                !
 ! D88   D(5,10,12,31)         -60.0007         estimate D2E/DX2                !
 ! D89   D(5,10,12,32)        -179.9643         estimate D2E/DX2                !
 ! D90   D(5,10,12,33)          59.9997         estimate D2E/DX2                !
 ! D91   D(11,10,12,31)       -180.0            estimate D2E/DX2                !
 ! D92   D(11,10,12,32)         60.0364         estimate D2E/DX2                !
 ! D93   D(11,10,12,33)        -59.9996         estimate D2E/DX2                !
 ! D94   D(13,10,12,31)         59.9996         estimate D2E/DX2                !
 ! D95   D(13,10,12,32)        -59.964          estimate D2E/DX2                !
 ! D96   D(13,10,12,33)       -180.0            estimate D2E/DX2                !
 ! D97   D(5,10,13,34)        -120.0238         estimate D2E/DX2                !
 ! D98   D(5,10,13,35)          -0.0601         estimate D2E/DX2                !
 ! D99   D(5,10,13,36)         119.9759         estimate D2E/DX2                !
 ! D100  D(11,10,13,34)          0.0            estimate D2E/DX2                !
 ! D101  D(11,10,13,35)        119.9636         estimate D2E/DX2                !
 ! D102  D(11,10,13,36)       -120.0004         estimate D2E/DX2                !
 ! D103  D(12,10,13,34)        119.9881         estimate D2E/DX2                !
 ! D104  D(12,10,13,35)       -120.0482         estimate D2E/DX2                !
 ! D105  D(12,10,13,36)         -0.0122         estimate D2E/DX2                !
 ! D106  D(10,11,29,9)          55.1695         estimate D2E/DX2                !
 ! D107  D(28,11,29,9)         175.1687         estimate D2E/DX2                !
 ! D108  D(30,11,29,9)         -64.8309         estimate D2E/DX2                !
 --------------------------------------------------------------------------------
 Trust Radius=3.00D-01 FncErr=1.00D-07 GrdErr=1.00D-06
 Number of steps in this run=    216 maximum allowed number of steps=    216.
 GradGradGradGradGradGradGradGradGradGradGradGradGradGradGradGradGradGrad

 Leave Link  103 at Mon Jun 21 00:48:26 2021, MaxMem=  3355443200 cpu:         0.1
 (Enter /usr/local/gqt/g09/l202.exe)
                          Input orientation:                          
 ---------------------------------------------------------------------
 Center     Atomic      Atomic             Coordinates (Angstroms)
 Number     Number       Type             X           Y           Z
 ---------------------------------------------------------------------
      1          6           0       -0.353686    0.761317   -0.637966
      2          6           0       -1.863665    0.657715   -0.807548
      3          6           0       -2.242291   -0.572583    0.006415
      4          6           0       -0.928672   -1.182673    0.375195
      5          7           0        0.072845   -0.602652   -0.478259
      6          6           0       -3.071385   -1.539070   -0.829070
      7          6           0       -3.091153   -0.230529    1.223774
      8          6           0        0.287080    1.387601   -1.869516
      9          6           0        0.045100    1.641963    0.538877
     10          6           0        1.334403   -0.588282    0.211748
     11          6           0        1.208346    0.238602    1.484501
     12          6           0        2.397794    0.026301   -0.688816
     13          6           0        1.733000   -2.013828    0.570174
     14          1           0       -2.369267    1.565852   -0.409522
     15          1           0       -2.170474    0.576757   -1.874357
     16          1           0       -3.335881   -2.428686   -0.214746
     17          1           0       -4.002769   -1.031900   -1.166816
     18          1           0       -2.481693   -1.862767   -1.715779
     19          1           0       -3.259138    0.869040    1.262486
     20          1           0       -4.071334   -0.752681    1.150484
     21          1           0       -2.563591   -0.557812    2.147534
     22          1           0        1.388430    1.452860   -1.722757
     23          1           0       -0.127263    2.409014   -2.023806
     24          1           0        0.068449    0.758925   -2.761557
     25          1           0       -0.244047    1.143177    1.490914
     26          1           0        1.146291    1.803041    0.524620
     27          1           0       -0.475254    2.622759    0.461167
     28          1           0        2.167743    0.202504    2.047551
     29          1           0        0.974055    1.293789    1.219062
     30          1           0        0.391524   -0.175999    2.116699
     31          1           0        2.490719   -0.577281   -1.619312
     32          1           0        3.374367    0.036831   -0.154997
     33          1           0        2.105560    1.067973   -0.950137
     34          1           0        1.835165   -2.104459    1.674764
     35          1           0        0.949939   -2.718755    0.211479
     36          1           0        2.704709   -2.259929    0.086455
 ---------------------------------------------------------------------
                    Distance matrix (angstroms):
                    1          2          3          4          5
     1  C    0.000000
     2  C    1.523000   0.000000
     3  C    2.400280   1.522999   0.000000
     4  C    2.266319   2.379101   1.494591   0.000000
     5  N    1.438001   2.333887   2.365516   1.438000   0.000000
     6  C    3.565696   2.506973   1.523000   2.483645   3.299413
     7  C    3.455946   2.534161   1.523001   2.510575   3.611963
     8  C    1.523000   2.507232   3.709334   3.622580   2.437745
     9  C    1.522999   2.534756   3.227985   2.992255   2.464474
    10  C    2.322300   3.580379   3.582617   2.345533   1.438000
    11  C    2.686641   3.855697   3.840528   2.795966   2.418573
    12  C    2.848416   4.309619   4.729947   3.695824   2.417706
    13  C    3.676315   4.687351   4.265906   2.795234   2.418004
    14  H    2.182208   1.113001   2.182208   3.200857   3.266657
    15  H    2.205322   1.112999   2.205322   3.114185   2.893540
    16  H    4.387336   3.470548   2.165634   2.774028   3.875984
    17  H    4.100136   2.749480   2.164885   3.442470   4.155598
    18  H    3.546253   2.749486   2.165142   2.691946   3.105642
    19  H    3.473467   2.505403   2.165634   3.229223   4.037101
    20  H    4.394502   3.270613   2.164885   3.265316   4.455281
    21  H    3.792465   3.271072   2.165143   2.490903   3.721236
    22  H    2.165634   3.470733   4.502731   4.088569   2.739465
    23  H    2.164885   2.749804   4.181514   4.392912   3.391001
    24  H    2.165143   2.749811   3.843709   3.821422   2.658451
    25  H    2.165633   2.853377   3.023334   2.668917   2.650657
    26  H    2.164885   3.485151   4.170685   3.638995   2.818761
    27  H    2.165142   2.720059   3.679596   3.833314   3.403852
    28  H    3.725839   4.960953   4.920914   3.781967   3.378844
    29  H    2.344137   3.544629   3.911361   3.235019   2.699920
    30  H    3.003677   3.785786   3.398170   2.406064   2.649037
    31  H    3.293254   4.598351   5.004437   4.004596   2.673717
    32  H    3.828383   5.314913   5.651928   4.503825   3.378385
    33  H    2.497875   3.992918   4.744494   4.003558   2.673123
    34  H    4.283977   5.241452   4.664298   3.190198   3.161756
    35  H    3.812072   4.511689   3.852069   2.432186   2.392263
    36  H    4.359644   5.493808   5.227461   3.800698   3.161041
                    6          7          8          9         10
     6  C    0.000000
     7  C    2.434510   0.000000
     8  C    4.574628   4.857906   0.000000
     9  C    4.658619   3.716368   2.433847   0.000000
    10  C    4.625826   4.553870   3.054940   2.596788   0.000000
    11  C    5.179655   4.332869   3.663108   2.053477   1.523000
    12  C    5.690516   5.818290   2.775302   3.106890   1.523000
    13  C    5.026469   5.184573   4.428599   4.026760   1.523000
    14  H    3.210846   2.532935   3.036369   2.595076   4.329370
    15  H    2.526062   3.331332   2.587868   3.444870   4.241853
    16  H    1.113000   2.638395   5.516172   5.345013   5.037910
    17  H    1.113000   2.681074   4.974995   5.142390   5.530157
    18  H    1.113000   3.417106   4.272544   4.873529   4.461195
    19  H    3.195129   1.113000   4.759622   3.469727   4.932389
    20  H    2.353070   1.113000   5.718127   4.801397   5.489102
    21  H    3.175042   1.113000   5.296003   3.772540   4.352304
    22  H    5.444288   5.619832   1.113000   2.637287   2.812737
    23  H    5.067802   5.128217   1.113000   2.680563   4.014717
    24  H    4.344404   5.181213   1.113001   3.416602   3.501164
    25  H    4.535484   3.172450   3.410913   1.113000   2.669405
    26  H    5.548961   4.751858   2.577348   1.113000   2.419029
    27  H    5.072024   3.945345   2.745697   1.113000   3.694300
    28  H    6.225471   5.340610   4.503861   2.975525   2.165634
    29  H    5.346543   4.341599   3.165446   1.202844   2.164884
    30  H    4.746288   3.595737   4.283184   2.431978   2.165141
    31  H    5.699695   6.273808   2.963003   3.945108   2.165633
    32  H    6.669749   6.616301   3.780939   3.760576   2.164884
    33  H    5.797593   5.780815   2.062593   2.606170   2.165142
    34  H    5.537426   5.289954   5.210851   4.304678   2.165634
    35  H    4.318037   4.852467   4.651030   4.465623   2.164885
    36  H    5.892460   6.245316   4.793248   4.743729   2.165142
                   11         12         13         14         15
    11  C    0.000000
    12  C    2.486597   0.000000
    13  C    2.486905   2.487797   0.000000
    14  H    4.260074   5.017279   5.531953   0.000000
    15  H    4.776264   4.751587   5.284314   1.778643   0.000000
    16  H    5.536413   6.255136   5.146043   4.114440   3.625627
    17  H    5.983258   6.505035   6.072920   3.160718   2.538838
    18  H    5.317324   5.332225   4.797086   3.670746   2.464403
    19  H    4.517207   6.043068   5.806175   2.018174   3.333227
    20  H    5.382307   6.770484   5.968044   3.272040   3.811868
    21  H    3.911700   5.744685   4.802993   3.329601   4.197308
    22  H    3.434146   2.030498   4.170634   3.982165   3.668288
    23  H    4.336215   3.719601   5.454433   2.888497   2.748493
    24  H    4.427088   3.202943   4.643202   3.482192   2.415178
    25  H    1.711065   3.602494   3.837077   2.882164   3.918801
    26  H    1.836489   2.489075   3.861968   3.645274   4.273148
    27  H    3.092883   4.039611   5.136751   2.337185   3.537593
    28  H    1.113001   2.751667   2.698846   5.336702   5.860167
    29  H    1.113000   2.696953   3.455052   3.728821   4.468942
    30  H    1.112999   3.454991   2.751166   4.127687   4.801979
    31  H    3.455980   1.113000   2.726106   5.447575   4.808698
    32  H    2.724025   1.113000   2.724915   5.949119   5.830350
    33  H    2.724025   1.113000   3.456536   4.534779   4.402266
    34  H    2.432907   3.231594   1.113001   5.957573   5.985844
    35  H    3.230065   3.231431   1.113000   5.455330   4.994806
    36  H    3.230525   2.433534   1.113000   6.373996   5.971514
                   16         17         18         19         20
    16  H    0.000000
    17  H    1.817192   0.000000
    18  H    1.817416   1.818068   0.000000
    19  H    3.614291   3.173022   4.115489   0.000000
    20  H    2.283361   2.335068   3.460450   1.817192   0.000000
    21  H    3.110783   3.644298   4.078578   1.817416   1.818068
    22  H    6.297588   5.962225   5.096203   5.554495   6.552019
    23  H    6.080400   5.252987   4.887365   4.793733   5.968930
    24  H    5.313810   4.724941   3.803964   5.222823   5.892947
    25  H    5.022640   5.091412   4.932103   3.036133   4.284658
    26  H    6.208385   6.116426   5.623149   4.563398   5.843546
    27  H    5.844411   5.333875   5.374461   3.386392   4.980014
    28  H    6.506230   7.066196   6.328132   5.523734   6.375201
    29  H    5.872664   5.989159   5.524431   4.254671   5.445062
    30  H    4.940018   5.551923   5.078233   3.892187   4.602524
    31  H    6.272940   6.525091   5.136795   6.592227   7.124821
    32  H    7.149110   7.522506   6.351217   6.834122   7.600400
    33  H    6.509739   6.462824   5.497121   5.806484   6.773582
    34  H    5.514988   6.580762   5.494494   5.913002   6.081850
    35  H    4.316719   5.410591   4.027796   5.629673   5.473606
    36  H    6.050449   6.933181   5.504957   6.836737   7.022728
                   21         22         23         24         25
    21  H    0.000000
    22  H    5.885612   0.000000
    23  H    5.669024   1.817192   0.000000
    24  H    5.723688   1.817416   1.818069   0.000000
    25  H    2.950389   3.617813   3.737544   4.281216   0.000000
    26  H    4.687291   2.287349   2.912665   3.612600   1.817191
    27  H    4.161853   3.100243   2.518308   3.762371   1.817416
    28  H    4.793078   4.047955   5.168335   5.276756   2.647913
    29  H    4.099442   2.975115   3.601780   4.117224   1.257124
    30  H    2.979838   4.288173   4.908688   4.977534   1.592414
    31  H    6.303615   2.312404   3.991917   2.992919   4.484688
    32  H    6.396452   2.899475   4.623971   4.271378   4.126251
    33  H    5.834356   1.122210   2.817207   2.743460   3.388959
    34  H    4.686649   4.939356   6.156459   5.567872   3.860578
    35  H    4.556630   4.619082   5.696567   4.659423   4.239938
    36  H    5.907642   4.334817   5.854254   4.916759   4.716863
                   26         27         28         29         30
    26  H    0.000000
    27  H    1.818068   0.000000
    28  H    2.434009   3.919143   0.000000
    29  H    0.878210   2.107383   1.817192   0.000000
    30  H    2.649715   3.365284   1.817416   1.818068   0.000000
    31  H    3.474171   4.833802   3.762746   3.722572   4.304117
    32  H    2.923303   4.678276   2.516864   3.038006   3.755430
    33  H    1.906681   3.327122   3.120743   2.456974   3.727046
    34  H    4.131094   5.399764   2.360436   3.535147   2.449156
    35  H    4.536877   5.534012   3.658956   4.137187   3.226034
    36  H    4.373601   5.838940   3.193400   4.111797   3.716918
                   31         32         33         34         35
    31  H    0.000000
    32  H    1.817192   0.000000
    33  H    1.817417   1.818068   0.000000
    34  H    3.689575   3.209718   4.126444   0.000000
    35  H    3.211185   3.688551   4.126030   1.817192   0.000000
    36  H    2.405564   2.404547   3.536726   1.817417   1.818068
                   36
    36  H    0.000000
 Stoichiometry    C12H23N
 Framework group  C1[X(C12H23N)]
 Deg. of freedom   102
 Full point group                 C1      NOp   1
 Largest Abelian subgroup         C1      NOp   1
 Largest concise Abelian subgroup C1      NOp   1
                         Standard orientation:                         
 ---------------------------------------------------------------------
 Center     Atomic      Atomic             Coordinates (Angstroms)
 Number     Number       Type             X           Y           Z
 ---------------------------------------------------------------------
      1          6           0        0.031539    1.044912   -0.067227
      2          6           0       -1.483923    1.144622   -0.181071
      3          6           0       -1.957979   -0.297900   -0.063063
      4          6           0       -0.698150   -1.100105   -0.118767
      5          7           0        0.338502   -0.243283   -0.627739
      6          6           0       -2.880573   -0.659794   -1.219516
      7          6           0       -2.756295   -0.549446    1.209315
      8          6           0        0.707657    2.155035   -0.860965
      9          6           0        0.522760    1.192503    1.366804
     10          6           0        1.605962   -0.662017   -0.092901
     11          6           0        1.571039   -0.572221    1.427048
     12          6           0        2.706626    0.243843   -0.629076
     13          6           0        1.882463   -2.100450   -0.510018
     14          1           0       -1.901972    1.766558    0.641851
     15          1           0       -1.811576    1.627135   -1.129013
     16          1           0       -3.213750   -1.716336   -1.112372
     17          1           0       -3.768318    0.011455   -1.209230
     18          1           0       -2.334149   -0.539028   -2.181599
     19          1           0       -2.826246    0.393445    1.796539
     20          1           0       -3.779577   -0.896272    0.942153
     21          1           0       -2.246720   -1.328953    1.818798
     22          1           0        1.812422    2.061913   -0.763027
     23          1           0        0.382745    3.143570   -0.465995
     24          1           0        0.422049    2.070938   -1.933404
     25          1           0        0.204173    0.307361    1.961610
     26          1           0        1.633549    1.262395    1.372561
     27          1           0        0.089755    2.115155    1.814003
     28          1           0        2.531320   -0.950388    1.843726
     29          1           0        1.426880    0.488354    1.732284
     30          1           0        0.729814   -1.188700    1.815713
     31          1           0        2.733004    0.178957   -1.739870
     32          1           0        3.687711   -0.080655   -0.215625
     33          1           0        2.503622    1.294708   -0.323717
     34          1           0        1.991707   -2.735896    0.397200
     35          1           0        1.035426   -2.476846   -1.126154
     36          1           0        2.821859   -2.139789   -1.105633
 ---------------------------------------------------------------------
 Rotational constants (GHZ):      1.2628258      0.6802423      0.6012054
 Leave Link  202 at Mon Jun 21 00:48:26 2021, MaxMem=  3355443200 cpu:         0.0
 (Enter /usr/local/gqt/g09/l301.exe)
 Standard basis: 6-311+G(d,p) (5D, 7F)
 Ernie: Thresh=  0.10000D-02 Tol=  0.10000D-05 Strict=F.
 There are   437 symmetry adapted cartesian basis functions of A   symmetry.
 There are   424 symmetry adapted basis functions of A   symmetry.
   424 basis functions,   652 primitive gaussians,   437 cartesian basis functions
    51 alpha electrons       51 beta electrons
       nuclear repulsion energy       943.9298171468 Hartrees.
 IExCor= 5547 DFT=T Ex+Corr=N12SX ExCW=0 ScaHFX=  0.250000
 ScaDFX=  1.000000  1.000000  1.000000  1.000000 ScalE2=  1.000000  1.000000
 IRadAn=      0 IRanWt=     -1 IRanGd=            0 ICorTp=0 IEmpDi=  4
  HFx wShort=  0.110000 wLong=  0.000000 cFull=  0.000000 cShort=  1.000000 cLong=  0.000000
  DFx wShort=  0.110000 wLong=  0.000000 cFull=  0.000000 cShort=  1.000000 cLong=  0.000000
 NAtoms=   36 NActive=   36 NUniq=   36 SFac= 1.00D+00 NAtFMM=   60 NAOKFM=F Big=F
 Integral buffers will be    131072 words long.
 Raffenetti 2 integral format.
 Two-electron integral symmetry is turned on.
 ------------------------------------------------------------------------------
 Polarizable Continuum Model (PCM)
 =================================
 Model                : PCM (using non-symmetric T matrix).
 Atomic radii         : UFF (Universal Force Field).
 Polarization charges : Total charges.
 Charge compensation  : None.
 Solution method      : On-the-fly selection.
 Cavity type          : Scaled VdW (van der Waals Surface) (Alpha=1.100).
 Cavity algorithm     : GePol (No added spheres)
                        Default sphere list used, NSphG=   36.
                        Lebedev-Laikov grids with approx.  5.0 points / Ang**2.
                        Smoothing algorithm: Karplus/York (Gamma=1.0000).
                        Polarization charges: spherical gaussians, with
                                              point-specific exponents (IZeta= 3).
                        Self-potential: point-specific (ISelfS= 7).
                        Self-field    : sphere-specific E.n sum rule (ISelfD= 2).
 1st derivatives      : Analytical E(r).r(x)/FMM algorithm (CHGder, D1EAlg=3).
                        Cavity 1st derivative terms included.
 Solvent              : Water, Eps=  78.355300 Eps(inf)=   1.777849
 ------------------------------------------------------------------------------
 GePol: Number of generator spheres                  =      36
 GePol: Total number of spheres                      =      36
 GePol: Number of exposed spheres                    =      36 (100.00%)
 GePol: Number of points                             =    1981
 GePol: Average weight of points                     =       0.13
 GePol: Minimum weight of points                     =   0.13D-09
 GePol: Maximum weight of points                     =    0.20577
 GePol: Number of points with low weight             =     150
 GePol: Fraction of low-weight points (<1% of avg)   =       7.57%
 GePol: Cavity surface area                          =    265.864 Ang**2
 GePol: Cavity volume                                =    297.923 Ang**3
 Leave Link  301 at Mon Jun 21 00:48:26 2021, MaxMem=  3355443200 cpu:         0.7
 (Enter /usr/local/gqt/g09/l302.exe)
 NPDir=0 NMtPBC=     1 NCelOv=     1 NCel=       1 NClECP=     1 NCelD=      1
         NCelK=      1 NCelE2=     1 NClLst=     1 CellRange=     0.0.
 One-electron integrals computed using PRISM.
 NBasis=   424 RedAO= T EigKep=  2.42D-06  NBF=   424
 NBsUse=   424 1.00D-06 EigRej= -1.00D+00 NBFU=   424
 Precomputing XC quadrature grid using
 IXCGrd= 4 IRadAn=           0 IRanWt=          -1 IRanGd=           0 AccXCQ= 0.00D+00.
 Generated NRdTot=       0 NPtTot=           0 NUsed=           0 NTot=          32
 NSgBfM=   437   437   437   437   437 MxSgAt=    36 MxSgA2=    36.
 Leave Link  302 at Mon Jun 21 00:48:26 2021, MaxMem=  3355443200 cpu:         8.6
 (Enter /usr/local/gqt/g09/l303.exe)
 DipDrv:  MaxL=1.
 Leave Link  303 at Mon Jun 21 00:48:27 2021, MaxMem=  3355443200 cpu:         1.0
 (Enter /usr/local/gqt/g09/l401.exe)
 ExpMin= 4.38D-02 ExpMax= 6.29D+03 ExpMxC= 9.49D+02 IAcc=2 IRadAn=         4 AccDes= 0.00D+00
 Harris functional with IExCor= 5547 and IRadAn=       4 diagonalized for initial guess.
 HarFok:  IExCor= 5547 AccDes= 0.00D+00 IRadAn=         4 IDoV= 1 UseB2=F ITyADJ=14
 ICtDFT=  3500011 ScaDFX=  1.000000  1.000000  1.000000  1.000000
 FoFCou: FMM=F IPFlag=           0 FMFlag=      100000 FMFlg1=           0
         NFxFlg=           0 DoJE=T BraDBF=F KetDBF=T FulRan=T
         wScrn=  0.000000 ICntrl=     500 IOpCl=  0 I1Cent=   200000004 NGrid=           0
         NMat0=    1 NMatS0=      1 NMatT0=    0 NMatD0=    1 NMtDS0=    0 NMtDT0=    0
 Petite list used in FoFCou.
 Harris En= -508.020075143326    
 JPrj=0 DoOrth=F DoCkMO=F.
 Leave Link  401 at Mon Jun 21 00:48:29 2021, MaxMem=  3355443200 cpu:        32.5
 (Enter /usr/local/gqt/g09/l502.exe)
 Closed shell SCF:
 Using DIIS extrapolation, IDIIS=  1040.
 Integral symmetry usage will be decided dynamically.
 IVT=      601737 IEndB=      601737 NGot=  3355443200 MDV=  3355049510
 LenX=  3355049510 LenY=  3354858100
 Requested convergence on RMS density matrix=1.00D-08 within 128 cycles.
 Requested convergence on MAX density matrix=1.00D-06.
 Requested convergence on             energy=1.00D-06.
 No special actions if energy rises.
 Fock matrices will be formed incrementally for  20 cycles.

 Cycle   1  Pass 1  IDiag  1:
 FoFJK:  IHMeth= 1 ICntrl=       0 DoSepK=T KAlg= 0 I1Cent=   0 FoldK=F
 IRaf=         1 NMat=   1 IRICut=       1 DoRegI=T DoRafI=F ISym2E= 0.
 FoFCou: FMM=F IPFlag=           0 FMFlag=      100000 FMFlg1=           0
         NFxFlg=           0 DoJE=T BraDBF=F KetDBF=F FulRan=T
         wScrn=  0.000000 ICntrl=     500 IOpCl=  0 I1Cent=           0 NGrid=           0
         NMat0=    1 NMatS0=      1 NMatT0=    0 NMatD0=    1 NMtDS0=    0 NMtDT0=    0
 Symmetry not used in FoFCou.
 Inv3:  Mode=1 IEnd=    11773083.
 Iteration    1 A*A^-1 deviation from unit magnitude is 6.66D-15 for    606.
 Iteration    1 A*A^-1 deviation from orthogonality  is 3.55D-15 for   1959    661.
 Iteration    1 A^-1*A deviation from unit magnitude is 5.11D-15 for   1960.
 Iteration    1 A^-1*A deviation from orthogonality  is 8.74D-12 for   1958   1953.
 E= -525.099721073894    
 DIIS: error= 5.86D-02 at cycle   1 NSaved=   1.
 NSaved= 1 IEnMin= 1 EnMin= -525.099721073894     IErMin= 1 ErrMin= 5.86D-02
 ErrMax= 5.86D-02  0.00D+00 EMaxC= 1.00D-01 BMatC= 1.30D+00 BMatP= 1.30D+00
 IDIUse=3 WtCom= 4.14D-01 WtEn= 5.86D-01
 Coeff-Com:  0.100D+01
 Coeff-En:   0.100D+01
 Coeff:      0.100D+01
 Gap=     0.120 Goal=   None    Shift=    0.000
 GapD=    0.120 DampG=1.000 DampE=0.500 DampFc=0.5000 IDamp=-1.
 Damping current iteration by 5.00D-01
 RMSDP=1.41D-02 MaxDP=1.48D+00              OVMax= 2.89D-01

 Cycle   2  Pass 1  IDiag  1:
 RMSU=  5.84D-03    CP:  8.97D-01
 E= -525.188327991207     Delta-E=       -0.088606917313 Rises=F Damp=T
 DIIS: error= 2.86D-02 at cycle   2 NSaved=   2.
 NSaved= 2 IEnMin= 2 EnMin= -525.188327991207     IErMin= 2 ErrMin= 2.86D-02
 ErrMax= 2.86D-02  0.00D+00 EMaxC= 1.00D-01 BMatC= 2.80D-01 BMatP= 1.30D+00
 IDIUse=3 WtCom= 7.14D-01 WtEn= 2.86D-01
 Coeff-Com: -0.456D+00 0.146D+01
 Coeff-En:   0.145D+00 0.855D+00
 Coeff:     -0.284D+00 0.128D+01
 Gap=     0.164 Goal=   None    Shift=    0.000
 RMSDP=7.80D-03 MaxDP=1.01D+00 DE=-8.86D-02 OVMax= 3.25D-01

 Cycle   3  Pass 1  IDiag  1:
 RMSU=  5.80D-03    CP:  7.85D-01  4.85D-01
 E= -525.176897629349     Delta-E=        0.011430361858 Rises=F Damp=F
 DIIS: error= 2.11D-02 at cycle   3 NSaved=   3.
 NSaved= 3 IEnMin= 2 EnMin= -525.188327991207     IErMin= 3 ErrMin= 2.11D-02
 ErrMax= 2.11D-02  0.00D+00 EMaxC= 1.00D-01 BMatC= 1.76D-01 BMatP= 2.80D-01
 IDIUse=3 WtCom= 7.89D-01 WtEn= 2.11D-01
 Coeff-Com: -0.373D+00 0.837D+00 0.537D+00
 Coeff-En:   0.000D+00 0.534D+00 0.466D+00
 Coeff:     -0.295D+00 0.773D+00 0.522D+00
 Gap=     0.134 Goal=   None    Shift=    0.000
 RMSDP=4.42D-03 MaxDP=3.29D-01 DE= 1.14D-02 OVMax= 1.46D-01

 Cycle   4  Pass 1  IDiag  1:
 RMSU=  2.76D-03    CP:  7.68D-01  8.04D-01  5.13D-01
 E= -525.323327948303     Delta-E=       -0.146430318955 Rises=F Damp=F
 DIIS: error= 5.44D-03 at cycle   4 NSaved=   4.
 NSaved= 4 IEnMin= 4 EnMin= -525.323327948303     IErMin= 4 ErrMin= 5.44D-03
 ErrMax= 5.44D-03  0.00D+00 EMaxC= 1.00D-01 BMatC= 1.58D-02 BMatP= 1.76D-01
 IDIUse=3 WtCom= 9.46D-01 WtEn= 5.44D-02
 Coeff-Com: -0.204D+00 0.457D+00 0.356D+00 0.391D+00
 Coeff-En:   0.000D+00 0.000D+00 0.136D-01 0.986D+00
 Coeff:     -0.193D+00 0.432D+00 0.338D+00 0.423D+00
 Gap=     0.106 Goal=   None    Shift=    0.000
 RMSDP=1.45D-03 MaxDP=1.25D-01 DE=-1.46D-01 OVMax= 5.08D-02

 Cycle   5  Pass 1  IDiag  1:
 RMSU=  1.07D-03    CP:  7.60D-01  8.36D-01  5.88D-01  7.04D-01
 E= -525.336855313874     Delta-E=       -0.013527365570 Rises=F Damp=F
 DIIS: error= 8.87D-04 at cycle   5 NSaved=   5.
 NSaved= 5 IEnMin= 5 EnMin= -525.336855313874     IErMin= 5 ErrMin= 8.87D-04
 ErrMax= 8.87D-04  0.00D+00 EMaxC= 1.00D-01 BMatC= 4.37D-04 BMatP= 1.58D-02
 IDIUse=3 WtCom= 9.91D-01 WtEn= 8.87D-03
 Coeff-Com: -0.397D-01 0.878D-01 0.679D-01 0.162D+00 0.722D+00
 Coeff-En:   0.000D+00 0.000D+00 0.000D+00 0.000D+00 0.100D+01
 Coeff:     -0.394D-01 0.871D-01 0.673D-01 0.160D+00 0.725D+00
 Gap=     0.112 Goal=   None    Shift=    0.000
 RMSDP=3.15D-04 MaxDP=3.14D-02 DE=-1.35D-02 OVMax= 1.01D-02

 Cycle   6  Pass 1  IDiag  1:
 RMSU=  2.52D-04    CP:  7.63D-01  8.32D-01  5.92D-01  7.41D-01  8.86D-01
 E= -525.337168382260     Delta-E=       -0.000313068386 Rises=F Damp=F
 DIIS: error= 3.72D-04 at cycle   6 NSaved=   6.
 NSaved= 6 IEnMin= 6 EnMin= -525.337168382260     IErMin= 6 ErrMin= 3.72D-04
 ErrMax= 3.72D-04  0.00D+00 EMaxC= 1.00D-01 BMatC= 1.09D-04 BMatP= 4.37D-04
 IDIUse=3 WtCom= 9.96D-01 WtEn= 3.72D-03
 Coeff-Com:  0.165D-02-0.479D-02-0.551D-02 0.320D-01 0.413D+00 0.564D+00
 Coeff-En:   0.000D+00 0.000D+00 0.000D+00 0.000D+00 0.206D+00 0.794D+00
 Coeff:      0.164D-02-0.477D-02-0.549D-02 0.319D-01 0.412D+00 0.564D+00
 Gap=     0.110 Goal=   None    Shift=    0.000
 RMSDP=1.56D-04 MaxDP=6.40D-03 DE=-3.13D-04 OVMax= 2.73D-03

 Cycle   7  Pass 1  IDiag  1:
 RMSU=  8.19D-05    CP:  7.62D-01  8.34D-01  5.89D-01  7.33D-01  1.00D+00
                    CP:  8.83D-01
 E= -525.337274760724     Delta-E=       -0.000106378465 Rises=F Damp=F
 DIIS: error= 3.38D-05 at cycle   7 NSaved=   7.
 NSaved= 7 IEnMin= 7 EnMin= -525.337274760724     IErMin= 7 ErrMin= 3.38D-05
 ErrMax= 3.38D-05  0.00D+00 EMaxC= 1.00D-01 BMatC= 1.39D-06 BMatP= 1.09D-04
 IDIUse=1 WtCom= 1.00D+00 WtEn= 0.00D+00
 Coeff-Com:  0.161D-02-0.381D-02-0.356D-02 0.331D-02 0.809D-01 0.161D+00
 Coeff-Com:  0.760D+00
 Coeff:      0.161D-02-0.381D-02-0.356D-02 0.331D-02 0.809D-01 0.161D+00
 Coeff:      0.760D+00
 Gap=     0.111 Goal=   None    Shift=    0.000
 RMSDP=3.31D-05 MaxDP=3.18D-03 DE=-1.06D-04 OVMax= 8.21D-04

 Cycle   8  Pass 1  IDiag  1:
 RMSU=  2.55D-05    CP:  7.62D-01  8.32D-01  5.88D-01  7.38D-01  1.00D+00
                    CP:  9.23D-01  9.82D-01
 E= -525.337276029547     Delta-E=       -0.000001268822 Rises=F Damp=F
 DIIS: error= 2.05D-05 at cycle   8 NSaved=   8.
 NSaved= 8 IEnMin= 8 EnMin= -525.337276029547     IErMin= 8 ErrMin= 2.05D-05
 ErrMax= 2.05D-05  0.00D+00 EMaxC= 1.00D-01 BMatC= 4.13D-07 BMatP= 1.39D-06
 IDIUse=1 WtCom= 1.00D+00 WtEn= 0.00D+00
 Coeff-Com:  0.396D-03-0.867D-03-0.808D-03-0.483D-03 0.716D-02 0.295D-01
 Coeff-Com:  0.383D+00 0.583D+00
 Coeff:      0.396D-03-0.867D-03-0.808D-03-0.483D-03 0.716D-02 0.295D-01
 Coeff:      0.383D+00 0.583D+00
 Gap=     0.111 Goal=   None    Shift=    0.000
 RMSDP=1.15D-05 MaxDP=8.15D-04 DE=-1.27D-06 OVMax= 2.01D-04

 Cycle   9  Pass 1  IDiag  1:
 RMSU=  6.66D-06    CP:  7.62D-01  8.32D-01  5.88D-01  7.38D-01  1.00D+00
                    CP:  9.20D-01  1.06D+00  7.60D-01
 E= -525.337276430977     Delta-E=       -0.000000401430 Rises=F Damp=F
 DIIS: error= 6.91D-06 at cycle   9 NSaved=   9.
 NSaved= 9 IEnMin= 9 EnMin= -525.337276430977     IErMin= 9 ErrMin= 6.91D-06
 ErrMax= 6.91D-06  0.00D+00 EMaxC= 1.00D-01 BMatC= 3.60D-08 BMatP= 4.13D-07
 IDIUse=1 WtCom= 1.00D+00 WtEn= 0.00D+00
 Coeff-Com:  0.645D-04-0.125D-03-0.964D-04-0.103D-02-0.530D-02-0.561D-02
 Coeff-Com:  0.974D-01 0.258D+00 0.657D+00
 Coeff:      0.645D-04-0.125D-03-0.964D-04-0.103D-02-0.530D-02-0.561D-02
 Coeff:      0.974D-01 0.258D+00 0.657D+00
 Gap=     0.111 Goal=   None    Shift=    0.000
 RMSDP=4.38D-06 MaxDP=4.78D-04 DE=-4.01D-07 OVMax= 8.97D-05

 Cycle  10  Pass 1  IDiag  1:
 RMSU=  2.08D-06    CP:  7.62D-01  8.32D-01  5.88D-01  7.38D-01  1.00D+00
                    CP:  9.29D-01  1.07D+00  8.10D-01  8.31D-01
 E= -525.337276467622     Delta-E=       -0.000000036645 Rises=F Damp=F
 DIIS: error= 2.50D-06 at cycle  10 NSaved=  10.
 NSaved=10 IEnMin=10 EnMin= -525.337276467622     IErMin=10 ErrMin= 2.50D-06
 ErrMax= 2.50D-06  0.00D+00 EMaxC= 1.00D-01 BMatC= 2.90D-09 BMatP= 3.60D-08
 IDIUse=1 WtCom= 1.00D+00 WtEn= 0.00D+00
 Coeff-Com: -0.583D-05 0.164D-04 0.156D-04-0.451D-03-0.202D-02-0.473D-02
 Coeff-Com:  0.672D-02 0.485D-01 0.245D+00 0.707D+00
 Coeff:     -0.583D-05 0.164D-04 0.156D-04-0.451D-03-0.202D-02-0.473D-02
 Coeff:      0.672D-02 0.485D-01 0.245D+00 0.707D+00
 Gap=     0.111 Goal=   None    Shift=    0.000
 RMSDP=1.68D-06 MaxDP=1.32D-04 DE=-3.66D-08 OVMax= 2.47D-05

 Cycle  11  Pass 1  IDiag  1:
 RMSU=  8.41D-07    CP:  7.62D-01  8.32D-01  5.88D-01  7.38D-01  1.01D+00
                    CP:  9.28D-01  1.07D+00  8.02D-01  9.43D-01  8.58D-01
 E= -525.337276470631     Delta-E=       -0.000000003009 Rises=F Damp=F
 DIIS: error= 7.62D-07 at cycle  11 NSaved=  11.
 NSaved=11 IEnMin=11 EnMin= -525.337276470631     IErMin=11 ErrMin= 7.62D-07
 ErrMax= 7.62D-07  0.00D+00 EMaxC= 1.00D-01 BMatC= 4.43D-10 BMatP= 2.90D-09
 IDIUse=1 WtCom= 1.00D+00 WtEn= 0.00D+00
 Coeff-Com: -0.176D-04 0.377D-04 0.284D-04-0.108D-03-0.362D-03-0.188D-02
 Coeff-Com: -0.102D-01-0.120D-01 0.292D-01 0.346D+00 0.650D+00
 Coeff:     -0.176D-04 0.377D-04 0.284D-04-0.108D-03-0.362D-03-0.188D-02
 Coeff:     -0.102D-01-0.120D-01 0.292D-01 0.346D+00 0.650D+00
 Gap=     0.111 Goal=   None    Shift=    0.000
 RMSDP=4.99D-07 MaxDP=4.45D-05 DE=-3.01D-09 OVMax= 1.15D-05

 Cycle  12  Pass 1  IDiag  1:
 RMSU=  2.61D-07    CP:  7.62D-01  8.32D-01  5.88D-01  7.38D-01  1.01D+00
                    CP:  9.28D-01  1.08D+00  8.10D-01  9.38D-01  9.26D-01
                    CP:  9.18D-01
 E= -525.337276471083     Delta-E=       -0.000000000451 Rises=F Damp=F
 DIIS: error= 1.64D-07 at cycle  12 NSaved=  12.
 NSaved=12 IEnMin=12 EnMin= -525.337276471083     IErMin=12 ErrMin= 1.64D-07
 ErrMax= 1.64D-07  0.00D+00 EMaxC= 1.00D-01 BMatC= 2.26D-11 BMatP= 4.43D-10
 IDIUse=1 WtCom= 1.00D+00 WtEn= 0.00D+00
 Coeff-Com: -0.477D-05 0.102D-04 0.675D-05 0.152D-04 0.112D-03-0.934D-04
 Coeff-Com: -0.362D-02-0.789D-02-0.149D-01 0.223D-01 0.200D+00 0.804D+00
 Coeff:     -0.477D-05 0.102D-04 0.675D-05 0.152D-04 0.112D-03-0.934D-04
 Coeff:     -0.362D-02-0.789D-02-0.149D-01 0.223D-01 0.200D+00 0.804D+00
 Gap=     0.111 Goal=   None    Shift=    0.000
 RMSDP=1.31D-07 MaxDP=1.29D-05 DE=-4.51D-10 OVMax= 5.39D-06

 Cycle  13  Pass 1  IDiag  1:
 RMSU=  6.53D-08    CP:  7.62D-01  8.32D-01  5.88D-01  7.38D-01  1.01D+00
                    CP:  9.28D-01  1.08D+00  8.10D-01  9.45D-01  9.30D-01
                    CP:  1.00D+00  1.07D+00
 E= -525.337276471187     Delta-E=       -0.000000000104 Rises=F Damp=F
 DIIS: error= 7.87D-08 at cycle  13 NSaved=  13.
 NSaved=13 IEnMin=13 EnMin= -525.337276471187     IErMin=13 ErrMin= 7.87D-08
 ErrMax= 7.87D-08  0.00D+00 EMaxC= 1.00D-01 BMatC= 4.66D-12 BMatP= 2.26D-11
 IDIUse=1 WtCom= 1.00D+00 WtEn= 0.00D+00
 Coeff-Com: -0.838D-06 0.171D-05 0.985D-06 0.164D-04 0.665D-04 0.968D-04
 Coeff-Com: -0.697D-03-0.227D-02-0.828D-02-0.215D-01 0.348D-01 0.380D+00
 Coeff-Com:  0.618D+00
 Coeff:     -0.838D-06 0.171D-05 0.985D-06 0.164D-04 0.665D-04 0.968D-04
 Coeff:     -0.697D-03-0.227D-02-0.828D-02-0.215D-01 0.348D-01 0.380D+00
 Coeff:      0.618D+00
 Gap=     0.111 Goal=   None    Shift=    0.000
 RMSDP=5.71D-08 MaxDP=9.03D-06 DE=-1.04D-10 OVMax= 1.39D-06

 Cycle  14  Pass 1  IDiag  1:
 RMSU=  3.08D-08    CP:  7.62D-01  8.32D-01  5.88D-01  7.38D-01  1.01D+00
                    CP:  9.28D-01  1.08D+00  8.10D-01  9.44D-01  9.35D-01
                    CP:  9.95D-01  1.14D+00  9.14D-01
 E= -525.337276471104     Delta-E=        0.000000000083 Rises=F Damp=F
 DIIS: error= 2.12D-08 at cycle  14 NSaved=  14.
 NSaved=14 IEnMin=13 EnMin= -525.337276471187     IErMin=14 ErrMin= 2.12D-08
 ErrMax= 2.12D-08  0.00D+00 EMaxC= 1.00D-01 BMatC= 5.35D-13 BMatP= 4.66D-12
 IDIUse=1 WtCom= 1.00D+00 WtEn= 0.00D+00
 Coeff-Com:  0.430D-06-0.899D-06-0.643D-06 0.674D-05 0.167D-04 0.652D-04
 Coeff-Com:  0.226D-03 0.163D-03-0.144D-02-0.155D-01-0.177D-01 0.467D-01
 Coeff-Com:  0.272D+00 0.715D+00
 Coeff:      0.430D-06-0.899D-06-0.643D-06 0.674D-05 0.167D-04 0.652D-04
 Coeff:      0.226D-03 0.163D-03-0.144D-02-0.155D-01-0.177D-01 0.467D-01
 Coeff:      0.272D+00 0.715D+00
 Gap=     0.111 Goal=   None    Shift=    0.000
 RMSDP=2.71D-08 MaxDP=3.99D-06 DE= 8.30D-11 OVMax= 5.81D-07

 Cycle  15  Pass 1  IDiag  1:
 RMSU=  1.04D-08    CP:  7.62D-01  8.32D-01  5.88D-01  7.38D-01  1.01D+00
                    CP:  9.28D-01  1.08D+00  8.10D-01  9.45D-01  9.34D-01
                    CP:  1.01D+00  1.17D+00  9.66D-01  8.72D-01
 E= -525.337276471127     Delta-E=       -0.000000000023 Rises=F Damp=F
 DIIS: error= 6.29D-09 at cycle  15 NSaved=  15.
 NSaved=15 IEnMin=13 EnMin= -525.337276471187     IErMin=15 ErrMin= 6.29D-09
 ErrMax= 6.29D-09  0.00D+00 EMaxC= 1.00D-01 BMatC= 3.64D-14 BMatP= 5.35D-13
 IDIUse=1 WtCom= 1.00D+00 WtEn= 0.00D+00
 Coeff-Com:  0.255D-06-0.539D-06-0.329D-06 0.643D-06-0.790D-06 0.120D-04
 Coeff-Com:  0.136D-03 0.276D-03 0.463D-03-0.292D-02-0.884D-02-0.228D-01
 Coeff-Com:  0.279D-01 0.255D+00 0.750D+00
 Coeff:      0.255D-06-0.539D-06-0.329D-06 0.643D-06-0.790D-06 0.120D-04
 Coeff:      0.136D-03 0.276D-03 0.463D-03-0.292D-02-0.884D-02-0.228D-01
 Coeff:      0.279D-01 0.255D+00 0.750D+00
 Gap=     0.111 Goal=   None    Shift=    0.000
 RMSDP=5.22D-09 MaxDP=5.53D-07 DE=-2.30D-11 OVMax= 1.50D-07

 Error on total polarization charges =  0.01894
 SCF Done:  E(RN12SX) =  -525.337276471     A.U. after   15 cycles
            NFock= 15  Conv=0.52D-08     -V/T= 2.0047
 KE= 5.228950886925D+02 PE=-3.105201129588D+03 EE= 1.113038947277D+03
 Leave Link  502 at Mon Jun 21 00:53:16 2021, MaxMem=  3355443200 cpu:      4569.3
 (Enter /usr/local/gqt/g09/l601.exe)
 Copying SCF densities to generalized density rwf, IOpCl= 0 IROHF=0.

 **********************************************************************

            Population analysis using the SCF density.

 **********************************************************************

 Orbital symmetries:
       Occupied  (A) (A) (A) (A) (A) (A) (A) (A) (A) (A) (A) (A)
                 (A) (A) (A) (A) (A) (A) (A) (A) (A) (A) (A) (A)
                 (A) (A) (A) (A) (A) (A) (A) (A) (A) (A) (A) (A)
                 (A) (A) (A) (A) (A) (A) (A) (A) (A) (A) (A) (A)
                 (A) (A) (A)
       Virtual   (A) (A) (A) (A) (A) (A) (A) (A) (A) (A) (A) (A)
                 (A) (A) (A) (A) (A) (A) (A) (A) (A) (A) (A) (A)
                 (A) (A) (A) (A) (A) (A) (A) (A) (A) (A) (A) (A)
                 (A) (A) (A) (A) (A) (A) (A) (A) (A) (A) (A) (A)
                 (A) (A) (A) (A) (A) (A) (A) (A) (A) (A) (A) (A)
                 (A) (A) (A) (A) (A) (A) (A) (A) (A) (A) (A) (A)
                 (A) (A) (A) (A) (A) (A) (A) (A) (A) (A) (A) (A)
                 (A) (A) (A) (A) (A) (A) (A) (A) (A) (A) (A) (A)
                 (A) (A) (A) (A) (A) (A) (A) (A) (A) (A) (A) (A)
                 (A) (A) (A) (A) (A) (A) (A) (A) (A) (A) (A) (A)
                 (A) (A) (A) (A) (A) (A) (A) (A) (A) (A) (A) (A)
                 (A) (A) (A) (A) (A) (A) (A) (A) (A) (A) (A) (A)
                 (A) (A) (A) (A) (A) (A) (A) (A) (A) (A) (A) (A)
                 (A) (A) (A) (A) (A) (A) (A) (A) (A) (A) (A) (A)
                 (A) (A) (A) (A) (A) (A) (A) (A) (A) (A) (A) (A)
                 (A) (A) (A) (A) (A) (A) (A) (A) (A) (A) (A) (A)
                 (A) (A) (A) (A) (A) (A) (A) (A) (A) (A) (A) (A)
                 (A) (A) (A) (A) (A) (A) (A) (A) (A) (A) (A) (A)
                 (A) (A) (A) (A) (A) (A) (A) (A) (A) (A) (A) (A)
                 (A) (A) (A) (A) (A) (A) (A) (A) (A) (A) (A) (A)
                 (A) (A) (A) (A) (A) (A) (A) (A) (A) (A) (A) (A)
                 (A) (A) (A) (A) (A) (A) (A) (A) (A) (A) (A) (A)
                 (A) (A) (A) (A) (A) (A) (A) (A) (A) (A) (A) (A)
                 (A) (A) (A) (A) (A) (A) (A) (A) (A) (A) (A) (A)
                 (A) (A) (A) (A) (A) (A) (A) (A) (A) (A) (A) (A)
                 (A) (A) (A) (A) (A) (A) (A) (A) (A) (A) (A) (A)
                 (A) (A) (A) (A) (A) (A) (A) (A) (A) (A) (A) (A)
                 (A) (A) (A) (A) (A) (A) (A) (A) (A) (A) (A) (A)
                 (A) (A) (A) (A) (A) (A) (A) (A) (A) (A) (A) (A)
                 (A) (A) (A) (A) (A) (A) (A) (A) (A) (A) (A) (A)
                 (A) (A) (A) (A) (A) (A) (A) (A) (A) (A) (A) (A)
                 (A)
 The electronic state is 1-A.
 Alpha  occ. eigenvalues --  -14.39426 -10.27108 -10.25865 -10.25836 -10.23103
 Alpha  occ. eigenvalues --  -10.22554 -10.22017 -10.21641 -10.21312 -10.20808
 Alpha  occ. eigenvalues --  -10.20472 -10.19911 -10.15366  -0.99438  -0.85810
 Alpha  occ. eigenvalues --   -0.83831  -0.79479  -0.75967  -0.69973  -0.68213
 Alpha  occ. eigenvalues --   -0.67457  -0.64410  -0.64205  -0.58183  -0.56121
 Alpha  occ. eigenvalues --   -0.54175  -0.50508  -0.49148  -0.46259  -0.45782
 Alpha  occ. eigenvalues --   -0.44557  -0.43098  -0.42589  -0.40991  -0.40171
 Alpha  occ. eigenvalues --   -0.39385  -0.38930  -0.38488  -0.37287  -0.36816
 Alpha  occ. eigenvalues --   -0.35835  -0.34817  -0.34201  -0.33404  -0.32467
 Alpha  occ. eigenvalues --   -0.32037  -0.30982  -0.28417  -0.27754  -0.20898
 Alpha  occ. eigenvalues --   -0.17890
 Alpha virt. eigenvalues --   -0.06831  -0.00561   0.00648   0.00911   0.01062
 Alpha virt. eigenvalues --    0.02236   0.02601   0.02759   0.03183   0.03308
 Alpha virt. eigenvalues --    0.04377   0.04765   0.04921   0.05322   0.05605
 Alpha virt. eigenvalues --    0.06105   0.06299   0.06796   0.07677   0.08125
 Alpha virt. eigenvalues --    0.08499   0.08816   0.09347   0.09684   0.10199
 Alpha virt. eigenvalues --    0.10661   0.11477   0.11896   0.12385   0.13009
 Alpha virt. eigenvalues --    0.13132   0.13252   0.13997   0.14742   0.14932
 Alpha virt. eigenvalues --    0.15349   0.15520   0.15976   0.16924   0.17075
 Alpha virt. eigenvalues --    0.17366   0.17725   0.17924   0.18260   0.18633
 Alpha virt. eigenvalues --    0.18838   0.19237   0.19359   0.19948   0.20397
 Alpha virt. eigenvalues --    0.20451   0.20842   0.21695   0.21958   0.22300
 Alpha virt. eigenvalues --    0.23160   0.23598   0.23756   0.24624   0.25096
 Alpha virt. eigenvalues --    0.25297   0.25501   0.25955   0.26479   0.26702
 Alpha virt. eigenvalues --    0.27567   0.28318   0.28861   0.29253   0.29691
 Alpha virt. eigenvalues --    0.30071   0.30442   0.30947   0.32205   0.32317
 Alpha virt. eigenvalues --    0.32785   0.33776   0.34151   0.35029   0.35740
 Alpha virt. eigenvalues --    0.36210   0.36924   0.37335   0.38046   0.40011
 Alpha virt. eigenvalues --    0.40249   0.41129   0.41986   0.42617   0.43939
 Alpha virt. eigenvalues --    0.45398   0.45875   0.46940   0.47217   0.48008
 Alpha virt. eigenvalues --    0.49076   0.49967   0.50732   0.51490   0.51542
 Alpha virt. eigenvalues --    0.53305   0.54512   0.55125   0.55371   0.57077
 Alpha virt. eigenvalues --    0.57731   0.58470   0.59086   0.60398   0.60714
 Alpha virt. eigenvalues --    0.61323   0.62511   0.62756   0.62907   0.64202
 Alpha virt. eigenvalues --    0.64597   0.65613   0.66335   0.67130   0.67644
 Alpha virt. eigenvalues --    0.68184   0.68481   0.69567   0.69872   0.70475
 Alpha virt. eigenvalues --    0.71033   0.71312   0.72110   0.72183   0.73126
 Alpha virt. eigenvalues --    0.73656   0.74010   0.74833   0.75171   0.75829
 Alpha virt. eigenvalues --    0.76639   0.77421   0.77553   0.78634   0.79256
 Alpha virt. eigenvalues --    0.79462   0.80249   0.81314   0.82010   0.82974
 Alpha virt. eigenvalues --    0.85134   0.85316   0.89262   0.91081   0.92637
 Alpha virt. eigenvalues --    0.95789   0.96050   0.97143   1.00044   1.01152
 Alpha virt. eigenvalues --    1.05704   1.07205   1.08766   1.11055   1.12030
 Alpha virt. eigenvalues --    1.14810   1.15452   1.19552   1.21985   1.24093
 Alpha virt. eigenvalues --    1.25841   1.28248   1.29411   1.30577   1.31729
 Alpha virt. eigenvalues --    1.33537   1.34985   1.36106   1.37398   1.38426
 Alpha virt. eigenvalues --    1.39548   1.41884   1.42947   1.43547   1.45041
 Alpha virt. eigenvalues --    1.45531   1.46664   1.47556   1.49040   1.49565
 Alpha virt. eigenvalues --    1.50816   1.51794   1.52396   1.53960   1.54946
 Alpha virt. eigenvalues --    1.56327   1.56719   1.57233   1.58454   1.59135
 Alpha virt. eigenvalues --    1.59915   1.60575   1.61548   1.62006   1.64600
 Alpha virt. eigenvalues --    1.64777   1.65189   1.66431   1.67743   1.68360
 Alpha virt. eigenvalues --    1.69285   1.70328   1.71144   1.71870   1.72621
 Alpha virt. eigenvalues --    1.73752   1.74314   1.74929   1.75195   1.75657
 Alpha virt. eigenvalues --    1.77544   1.78013   1.78703   1.80253   1.80370
 Alpha virt. eigenvalues --    1.81050   1.81491   1.82682   1.83510   1.85172
 Alpha virt. eigenvalues --    1.86366   1.87648   1.89118   1.89425   1.91218
 Alpha virt. eigenvalues --    1.91548   1.93864   1.94526   1.96083   1.98028
 Alpha virt. eigenvalues --    1.99665   2.01310   2.03283   2.03486   2.04295
 Alpha virt. eigenvalues --    2.05317   2.07789   2.12000   2.13290   2.13847
 Alpha virt. eigenvalues --    2.16050   2.17184   2.17502   2.18520   2.19538
 Alpha virt. eigenvalues --    2.20069   2.22011   2.23376   2.26401   2.27426
 Alpha virt. eigenvalues --    2.29064   2.31141   2.31493   2.34797   2.35354
 Alpha virt. eigenvalues --    2.37040   2.37799   2.38667   2.41678   2.44080
 Alpha virt. eigenvalues --    2.45066   2.45768   2.46002   2.48072   2.48514
 Alpha virt. eigenvalues --    2.49013   2.49182   2.49966   2.50519   2.51966
 Alpha virt. eigenvalues --    2.53161   2.53767   2.54641   2.55426   2.56262
 Alpha virt. eigenvalues --    2.56891   2.57845   2.58191   2.59450   2.60618
 Alpha virt. eigenvalues --    2.61113   2.63673   2.64468   2.65421   2.66761
 Alpha virt. eigenvalues --    2.69138   2.69254   2.70298   2.72448   2.73245
 Alpha virt. eigenvalues --    2.74542   2.76901   2.78107   2.79371   2.81419
 Alpha virt. eigenvalues --    2.82571   2.83852   2.86042   2.87245   2.88580
 Alpha virt. eigenvalues --    2.90188   2.91694   2.93493   2.95161   2.98460
 Alpha virt. eigenvalues --    2.98844   3.01887   3.03036   3.05206   3.05541
 Alpha virt. eigenvalues --    3.08855   3.11095   3.14308   3.17371   3.18961
 Alpha virt. eigenvalues --    3.20357   3.22277   3.26771   3.28533   3.29243
 Alpha virt. eigenvalues --    3.31343   3.33562   3.39474   3.44568   3.49860
 Alpha virt. eigenvalues --    3.50548   3.53859   3.63742   3.70120   3.75205
 Alpha virt. eigenvalues --    3.76223   3.77420   3.77692   3.77923   3.78833
 Alpha virt. eigenvalues --    3.79140   3.79648   3.82049   3.85514   3.87679
 Alpha virt. eigenvalues --    3.88714   3.91709   3.93086   3.97190   4.11957
 Alpha virt. eigenvalues --    4.17136   4.27095   4.31466   4.32700   4.38544
 Alpha virt. eigenvalues --    4.43545   4.46096   4.54581   4.87604   4.98919
 Alpha virt. eigenvalues --   23.62917  23.73680  23.76788  23.79526  23.81294
 Alpha virt. eigenvalues --   23.82618  23.84447  23.87965  23.89052  23.89194
 Alpha virt. eigenvalues --   23.98565  24.02645  35.39381
          Condensed to atoms (all electrons):
               1          2          3          4          5          6
     1  C   17.942890  -2.244851   1.915493  -0.846834  -2.234715  -0.119775
     2  C   -2.244851  10.007850  -2.884717   1.918022  -0.317416  -0.149737
     3  C    1.915493  -2.884717  10.678279  -3.264002  -0.529500   0.336387
     4  C   -0.846834   1.918022  -3.264002  10.360097  -0.106521  -0.659360
     5  N   -2.234715  -0.317416  -0.529500  -0.106521   8.590949   0.148063
     6  C   -0.119775  -0.149737   0.336387  -0.659360   0.148063   6.340475
     7  C   -0.171483  -0.114354  -0.408941   0.060570   0.098628  -0.574704
     8  C   -3.740297   0.639435  -0.978213   0.501080   0.611068  -0.172789
     9  C   -2.162291  -0.603914   0.441574  -0.233501   0.537309   0.035722
    10  C   -3.433814   0.341512   0.452732  -0.595777  -0.806855   0.211686
    11  C    0.026630  -0.286846   0.031164  -0.158108   0.716091   0.000861
    12  C    1.003876  -0.252879   0.001761   0.018713  -0.061339  -0.020918
    13  C    0.057260  -0.150112  -0.039757  -0.353609  -0.027969  -0.014235
    14  H   -0.098710   0.488318  -0.075465  -0.023862   0.037229   0.013950
    15  H   -0.075474   0.464512  -0.076534  -0.004742   0.011450  -0.025065
    16  H    0.004712   0.034554   0.029165  -0.071532  -0.002548   0.380074
    17  H   -0.003506  -0.054540  -0.030620   0.090571  -0.006319   0.370716
    18  H   -0.012430  -0.017992  -0.036014  -0.051407   0.020886   0.444947
    19  H    0.016248  -0.026726   0.029579  -0.098519   0.002094   0.006441
    20  H    0.001637   0.018728  -0.098339   0.016185  -0.002717   0.043867
    21  H   -0.014882   0.004359  -0.119419   0.113078   0.002667  -0.005844
    22  H   -0.075026   0.033103  -0.020663   0.009460   0.016429  -0.000578
    23  H    0.019048  -0.044233   0.006610   0.001766   0.007946   0.003204
    24  H   -0.036164  -0.017736   0.007974  -0.002702  -0.022691  -0.005502
    25  H    0.059059   0.102411  -0.009451   0.039560   0.002256   0.002331
    26  H   -0.051352   0.099042  -0.067711   0.058993  -0.023635  -0.003980
    27  H    0.010708  -0.149819   0.042472  -0.022875   0.023803   0.003569
    28  H    0.034730   0.010541  -0.008829   0.036749   0.022068   0.000094
    29  H    0.036623  -0.082274   0.034732  -0.060863  -0.037653   0.001764
    30  H    0.000218   0.021281  -0.016653   0.052104  -0.062532   0.003947
    31  H   -0.062808  -0.001482   0.003031  -0.009815  -0.005724   0.000975
    32  H    0.001803   0.000367   0.003258  -0.003322   0.018874   0.000136
    33  H    0.044841   0.024019  -0.022070   0.023793  -0.010337  -0.002921
    34  H   -0.021143  -0.000120   0.002510  -0.019104   0.005875   0.001613
    35  H    0.024358   0.013629  -0.017762   0.046194  -0.029070  -0.002055
    36  H   -0.013519  -0.005012   0.007925   0.005551   0.005414   0.000093
               7          8          9         10         11         12
     1  C   -0.171483  -3.740297  -2.162291  -3.433814   0.026630   1.003876
     2  C   -0.114354   0.639435  -0.603914   0.341512  -0.286846  -0.252879
     3  C   -0.408941  -0.978213   0.441574   0.452732   0.031164   0.001761
     4  C    0.060570   0.501080  -0.233501  -0.595777  -0.158108   0.018713
     5  N    0.098628   0.611068   0.537309  -0.806855   0.716091  -0.061339
     6  C   -0.574704  -0.172789   0.035722   0.211686   0.000861  -0.020918
     7  C    6.242343   0.163086   0.030479  -0.059580  -0.026476  -0.011647
     8  C    0.163086   8.853318  -0.227182   0.316091   0.015509  -0.649562
     9  C    0.030479  -0.227182   8.574975   1.095551  -1.306293  -0.424002
    10  C   -0.059580   0.316091   1.095551  13.464027  -1.723743  -2.034371
    11  C   -0.026476   0.015509  -1.306293  -1.723743   8.478076   0.106215
    12  C   -0.011647  -0.649562  -0.424002  -2.034371   0.106215   7.273716
    13  C    0.016336  -0.070258  -0.110975  -1.216805  -0.207091   0.603442
    14  H    0.005197   0.004500  -0.006706  -0.011535   0.011635   0.000025
    15  H    0.024269   0.001282   0.024394  -0.001453   0.002552  -0.000573
    16  H    0.003665   0.000604  -0.001302  -0.003651   0.000334  -0.000120
    17  H   -0.005805   0.001116   0.002143   0.004215  -0.001221   0.000544
    18  H    0.012195  -0.001974   0.006977   0.003247   0.000373  -0.002307
    19  H    0.431000  -0.003285   0.014384  -0.001822  -0.000090   0.000926
    20  H    0.396168  -0.000346  -0.002993   0.001357   0.000239   0.000042
    21  H    0.417142  -0.003523  -0.011551  -0.019939   0.006980   0.000919
    22  H   -0.000638   0.465110  -0.029093  -0.047909   0.031389  -0.045676
    23  H   -0.001103   0.350530  -0.000572   0.010524  -0.009610   0.018116
    24  H    0.002195   0.389701   0.039876   0.017007  -0.013763   0.002142
    25  H   -0.001491   0.034320   0.491504  -0.121016  -0.138903  -0.054329
    26  H    0.005672   0.187757   0.486769   0.070421  -0.367085  -0.081337
    27  H   -0.006989  -0.099707   0.375910   0.008509   0.116789   0.031489
    28  H   -0.000154   0.009180   0.042070  -0.030398   0.424928  -0.055267
    29  H   -0.004828  -0.094315  -0.379263  -0.045030   0.742272   0.150326
    30  H   -0.009384  -0.008322  -0.058476   0.041014   0.378721  -0.005094
    31  H   -0.000367   0.004768   0.020933   0.018011  -0.002574   0.404396
    32  H   -0.000158   0.011951  -0.003547  -0.055647   0.011024   0.428866
    33  H    0.001643  -0.061659  -0.031403  -0.083968   0.000231   0.426270
    34  H    0.000244  -0.002665   0.000540  -0.050019  -0.014200   0.007052
    35  H   -0.000027   0.000920  -0.002683   0.004079  -0.015241  -0.035440
    36  H   -0.000211   0.002347   0.009820  -0.070122   0.003930   0.012862
              13         14         15         16         17         18
     1  C    0.057260  -0.098710  -0.075474   0.004712  -0.003506  -0.012430
     2  C   -0.150112   0.488318   0.464512   0.034554  -0.054540  -0.017992
     3  C   -0.039757  -0.075465  -0.076534   0.029165  -0.030620  -0.036014
     4  C   -0.353609  -0.023862  -0.004742  -0.071532   0.090571  -0.051407
     5  N   -0.027969   0.037229   0.011450  -0.002548  -0.006319   0.020886
     6  C   -0.014235   0.013950  -0.025065   0.380074   0.370716   0.444947
     7  C    0.016336   0.005197   0.024269   0.003665  -0.005805   0.012195
     8  C   -0.070258   0.004500   0.001282   0.000604   0.001116  -0.001974
     9  C   -0.110975  -0.006706   0.024394  -0.001302   0.002143   0.006977
[...]
 29,0.00035044,0.00004204,0.00000145,0.00002412,0.00002026,0.00002703,0
 .00009274,0.00001776,0.00003914,-0.00002723,0.00001684,-0.00008090,-0.
 00002530,0.00039678,-0.00007002,-0.00011552,0.00021148,0.00005809,-0.0
 0025194,-0.00113219,0.00545593,0.06583721,0.33717483,0.00046553,-0.000
 73908,0.00032337,-0.00003601,-0.00000346,0.00007525,-0.00032306,-0.000
 38928,0.00001694,-0.00094076,0.00097698,-0.00048182,-0.00115511,-0.003
 54274,0.00348684,-0.00014002,0.00020098,0.00001522,-0.00006915,0.00001
 050,-0.00016019,0.00015152,0.00022797,0.00003534,0.00007643,0.00007665
 ,-0.00005412,-0.02194472,0.00688737,-0.00953346,0.00041459,0.00076292,
 -0.00134475,-0.26470804,0.06208246,-0.08942614,0.00025290,0.00151301,-
 0.00081473,-0.00005738,0.00003156,-0.00001519,-0.00001697,-0.00000548,
 -0.00003506,-0.00000501,-0.00002804,0.00001195,-0.00007787,-0.00005863
 ,-0.00004682,0.00001895,-0.00000611,-0.00001362,0.00002376,0.00000806,
 -0.00000164,-0.00005893,0.00002866,0.00005147,-0.00000395,-0.00002075,
 0.00002044,-0.00012932,-0.00010132,0.00000796,-0.00002858,-0.00002456,
 -0.00003032,0.00001550,-0.00002618,0.00002814,-0.00004231,-0.00000708,
 0.00001359,-0.00006622,-0.00009980,-0.00004021,-0.00006261,0.00006103,
 0.00000707,0.00059987,-0.00009019,0.00086205,0.00000409,-0.00005805,0.
 00004083,0.00044374,-0.00021321,-0.00007691,0.00046452,-0.00046767,0.0
 0034054,0.28815813,-0.00035020,-0.00057120,0.00014200,-0.00002304,0.00
 004845,-0.00000556,-0.00018145,-0.00022416,-0.00012526,-0.00113122,0.0
 0032314,-0.00001078,-0.00191923,-0.00190138,0.00219083,-0.00007974,0.0
 0009578,-0.00002673,0.00000721,0.00000429,-0.00005189,-0.00012073,-0.0
 0056554,0.00038363,-0.00012222,-0.00029543,-0.00020155,-0.01537619,0.0
 0289680,-0.00625577,0.00017480,0.00028874,-0.00040759,0.06482818,-0.06
 391268,0.02543199,-0.00102240,-0.00001133,-0.00029523,-0.00000849,0.00
 001701,-0.00001351,0.00000712,0.00000973,0.00000309,0.00000627,0.00000
 346,0.00000487,-0.00003219,-0.00003115,-0.00001605,0.00000640,-0.00000
 402,-0.00000369,0.00000090,0.00000026,0.00001930,-0.00001429,0.0000071
 1,0.00001301,0.00000673,0.00000260,-0.00000060,0.00047062,0.00032675,-
 0.00020632,0.00030425,0.00017076,0.00009021,0.00004121,0.00011772,0.00
 009816,0.00015187,-0.00000568,-0.00001531,0.00021780,0.00030359,0.0002
 4545,0.00020784,0.00001662,0.00003542,-0.00000678,0.00018325,0.0001339
 1,0.00007890,-0.00000520,0.00009236,0.00004035,-0.00005565,-0.00023552
 ,-0.00768559,0.00116977,-0.00265848,-0.06689684,0.06900372,0.00008735,
 0.00013777,-0.00050828,-0.00001454,-0.00003083,0.00006482,0.00015659,0
 .00013417,-0.00002349,0.00115608,-0.00012565,0.00025558,0.00219081,0.0
 0227061,-0.00147897,0.00004485,-0.00005631,0.00000782,0.00002681,-0.00
 001945,0.00005226,-0.00022515,0.00100113,-0.00061217,0.00003743,-0.000
 10470,0.00002714,0.01552664,-0.00436588,0.00464059,0.00084519,-0.00026
 486,0.00022548,-0.09235295,0.02506326,-0.08336391,0.00005293,-0.000286
 21,0.00025804,-0.00000583,-0.00000831,0.00001455,0.00003067,0.00000955
 ,0.00001514,-0.00000262,-0.00000053,-0.00000371,0.00002559,0.00001904,
 0.00001312,-0.00000514,0.00000463,0.00000455,-0.00000426,-0.00000332,-
 0.00000553,0.00001621,-0.00000799,-0.00001860,-0.00000365,0.00000407,0
 .00000220,-0.00055621,-0.00047474,-0.00005783,-0.00048199,0.00001325,0
 .00006657,0.00019928,0.00012537,0.00016540,0.00001815,0.00002658,0.000
 03896,0.00003396,0.00005148,0.00001129,0.00003463,-0.00002974,-0.00002
 361,0.00030798,0.00021884,-0.00043188,-0.00001191,-0.00003159,-0.00006
 167,-0.00012162,-0.00012553,0.00030450,-0.02807658,0.00881378,-0.00977
 912,0.09675642,-0.03090646,0.08941088,-0.00067872,-0.00055960,-0.00012
 962,-0.00002954,0.00019920,-0.00003037,0.00009319,0.00000290,0.0000848
 3,-0.00003032,-0.00003776,0.00001870,0.00166572,0.00062331,-0.00057047
 ,0.00001792,-0.00001725,-0.00004113,-0.00000456,0.00001377,0.00001182,
 -0.00067584,0.00008415,-0.00075913,-0.00150676,0.00035011,-0.00012763,
 0.00321611,-0.02416723,-0.00370998,0.00051564,0.00019866,-0.00128744,-
 0.04888374,0.03027891,0.00489871,-0.00306419,-0.00171965,0.00257522,0.
 00000533,0.00000815,-0.00001264,0.00005891,0.00004663,0.00002036,0.000
 01218,0.00002763,-0.00000290,0.00001511,0.00000626,0.00000977,-0.00000
 280,-0.00000139,0.00000455,-0.00001120,0.00000039,0.00002818,0.0000174
 9,-0.00000324,-0.00000238,0.00001420,0.00001804,-0.00001591,-0.0005113
 7,0.00007992,-0.00120772,0.00007329,-0.00004467,0.00001264,0.00009305,
 0.00007912,0.00008988,0.00036339,0.00002599,0.00002582,-0.00133522,0.0
 0181537,0.00105800,0.00016289,0.00000333,0.00005420,-0.00001704,0.0000
 9626,0.00007600,0.00009771,0.00030523,0.00029378,-0.00007134,0.0001359
 4,-0.00019512,-0.00121787,-0.00138039,-0.00056936,-0.00247610,0.028655
 11,0.00428869,0.05327420,-0.00109711,-0.00043429,0.00005754,-0.0000186
 1,0.00007447,-0.00007909,-0.00002370,-0.00004987,-0.00000632,-0.000221
 91,0.00020792,-0.00004454,0.00054020,0.00043902,0.00003062,-0.00002753
 ,0.00004049,-0.00000866,-0.00001968,0.00001700,-0.00004354,0.00010745,
 -0.00049808,0.00088585,0.00103602,-0.00095210,-0.00035290,0.00417010,-
 0.01487840,-0.00303429,0.00035622,0.00043140,-0.00087994,0.02740239,-0
 .31850586,-0.03050748,-0.00371220,-0.00103392,0.00291171,-0.00002533,0
 .00001230,-0.00001699,-0.00002446,-0.00000437,0.00001322,0.00000468,0.
 00000540,0.00000095,-0.00001597,-0.00001050,-0.00000766,0.00000489,-0.
 00000189,0.00000031,0.00000007,-0.00000019,0.00001600,-0.00001147,0.00
 000628,0.00001319,0.00000849,0.00000594,-0.00000674,0.00100689,0.00059
 419,0.00019385,0.00040982,0.00018842,0.00010442,0.00012539,0.00007984,
 0.00009407,0.00010668,-0.00003571,-0.00006720,0.00180267,0.00030286,-0
 .00013800,0.00041439,0.00002034,0.00006211,-0.00004799,0.00000869,0.00
 003537,-0.00005102,0.00035742,0.00071433,-0.00014375,0.00024149,0.0000
 3311,0.00084265,-0.00561118,0.00065366,0.00048950,-0.00674199,-0.00109
 212,-0.03378232,0.34618119,-0.00003400,0.00010357,0.00045294,0.0000412
 9,0.00000160,-0.00015010,0.00004667,-0.00007429,0.00002392,-0.00008465
 ,0.00001450,-0.00007573,-0.00041748,-0.00073866,0.00037524,-0.00000250
 ,-0.00000726,-0.00001800,0.00000991,0.00001711,0.00001742,-0.00066205,
 -0.00067956,-0.00028691,0.00052171,-0.00001351,-0.00008680,-0.00485985
 ,0.01646403,0.00073302,-0.00056154,0.00074416,0.00118438,0.00473912,-0
 .03061971,-0.05110600,0.00241467,0.00161481,-0.00158194,0.00003707,-0.
 00001390,-0.00000035,-0.00003095,-0.00002146,0.00000020,0.00000301,0.0
 0000954,-0.00000005,0.00000556,0.00000161,0.00000311,-0.00000126,0.000
 00013,0.00000187,-0.00000289,-0.00000434,-0.00000047,0.00000780,-0.000
 00302,-0.00000471,0.00000198,0.00000170,-0.00000994,-0.00096323,0.0005
 4142,-0.00161315,0.00032115,0.00002282,0.00004407,0.00002323,0.0001328
 7,0.00003345,0.00000377,-0.00003332,-0.00004592,0.00076383,-0.00051993
 ,0.00028213,-0.00007031,-0.00004671,-0.00002483,-0.00003216,0.00003712
 ,-0.00005941,0.00023684,-0.00021259,-0.00029360,-0.00001628,-0.0002260
 6,0.00013871,0.00396954,-0.03070243,-0.00193717,-0.00055415,0.01227825
 ,0.00064978,-0.00523441,0.03086660,0.05252420,0.00002639,-0.00006354,-
 0.00025640,-0.00013022,-0.00001061,-0.00004560,0.00001086,0.00004497,-
 0.00015521,-0.00160411,0.00251904,0.00058193,-0.00025650,-0.00147457,-
 0.00020213,0.00000913,-0.00004550,-0.00000399,0.00004318,-0.00002840,0
 .00003038,0.00006201,-0.00004805,-0.00000406,0.00006155,-0.00011534,0.
 00008060,0.00347114,0.00422677,-0.00369314,0.00016069,-0.00034658,-0.0
 0022530,-0.00008772,0.00067911,-0.00017912,-0.15678704,-0.10463765,0.0
 9605571,0.00001679,-0.00000117,-0.00001682,0.00000486,0.00001523,0.000
 00464,0.00002684,-0.00001224,0.00002210,0.00001660,0.00000085,0.000010
 77,-0.00002222,0.00001045,-0.00000670,-0.00000299,-0.00000883,-0.00000
 334,0.00001329,-0.00000349,-0.00001746,0.00000392,-0.00000422,-0.00000
 436,-0.00000122,-0.00000097,0.00001269,-0.00001420,-0.00000606,0.00002
 093,0.00000433,0.00001957,0.00001169,0.00001025,0.00000922,0.00000152,
 -0.00000139,-0.00000937,0.00000027,-0.00001477,-0.00005200,-0.00002681
 ,-0.00005340,-0.00008107,0.00003174,-0.00001763,0.00004384,-0.00007923
 ,-0.00004683,-0.00023343,-0.00010707,-0.00009811,0.00006127,0.00010223
 ,0.00040028,0.00012316,0.00003834,0.00049424,0.00030543,0.00011844,0.1
 6759571,0.00007396,-0.00012386,0.00028677,-0.00020969,0.00017283,-0.00
 010918,0.00038816,0.00068412,-0.00030894,-0.00132163,-0.00001514,0.000
 67471,-0.00138077,0.00102177,-0.00039443,0.00005233,0.00007727,0.00003
 914,0.00004049,-0.00001235,-0.00010248,-0.00007044,0.00004467,-0.00001
 659,-0.00011775,0.00007876,-0.00011167,-0.02081248,-0.01889750,0.01734
 739,-0.00037700,0.00166647,0.00153207,0.00235985,-0.00643073,-0.001537
 25,-0.10050978,-0.13560610,0.08386287,-0.00000307,0.00009745,-0.000078
 88,0.00000066,0.00003551,-0.00004013,0.00002429,-0.00000743,0.00001252
 ,-0.00003682,0.00000321,-0.00002346,0.00001003,-0.00001202,-0.00000814
 ,0.00000458,0.00000926,0.00001751,-0.00002634,0.00001986,0.00000697,0.
 00002088,-0.00000892,-0.00000215,0.00000784,0.00009041,-0.00010129,0.0
 0006974,0.00001746,-0.00001919,-0.00000192,-0.00000831,0.00000079,0.00
 002383,-0.00001442,-0.00001204,0.00000605,0.00009479,0.00005279,0.0000
 4083,0.00004451,0.00002605,0.00002906,-0.00001129,-0.00009050,0.000309
 36,0.00025168,0.00010570,0.00017395,0.00011014,-0.00087095,0.00018160,
 0.00015882,0.00003313,0.00010060,0.00026998,-0.00026045,-0.00143801,-0
 .00116610,0.00107291,0.11176927,0.14923808,-0.00011278,0.00007929,0.00
 020786,0.00012899,-0.00008102,0.00006263,-0.00020046,-0.00024355,0.000
 30120,0.00122995,-0.00059252,-0.00157853,0.00046844,0.00072599,0.00006
 136,0.00000116,-0.00004651,-0.00001200,-0.00003866,0.00002812,0.000061
 96,0.00004085,-0.00008047,0.00000846,0.00000875,0.00003030,0.00001062,
 -0.00383582,-0.00299706,0.00103002,-0.00075049,-0.00031358,0.00078830,
 -0.00025399,-0.00065010,0.00040061,0.09451567,0.08592187,-0.12841525,-
 0.00000401,-0.00005177,0.00003921,-0.00000529,-0.00001800,0.00002227,-
 0.00001176,0.00000507,-0.00000694,0.00002436,0.00000564,0.00001370,-0.
 00000385,0.00001116,0.00000216,-0.00000538,-0.00000309,-0.00000548,0.0
 0001742,-0.00001815,0.00000438,-0.00001487,0.00000663,0.00000753,-0.00
 000932,-0.00001039,0.00000027,-0.00001767,0.00000151,0.00003726,0.0000
 1067,0.00000732,0.00001526,-0.00000037,0.00000501,-0.00000321,-0.00002
 590,-0.00000151,-0.00000162,0.00000092,-0.00000943,-0.00000214,-0.0000
 9230,0.00003067,0.00000770,-0.00004061,0.00013992,0.00006626,0.0002912
 8,0.00010478,0.00033880,-0.00015641,-0.00018405,0.00037274,0.00029118,
 -0.00014775,-0.00003685,0.00012772,-0.00020920,0.00059599,-0.10442119,
 -0.09174317,0.13501122,0.00007033,0.00017358,0.00003962,0.00001258,-0.
 00002301,0.00001687,-0.00002613,-0.00002157,-0.00003279,0.00002218,-0.
 00034772,-0.00046251,0.00091961,-0.00004323,0.00092983,0.00000556,-0.0
 0000198,0.00000610,0.00001496,0.00000127,0.00002110,0.00000224,-0.0000
 1780,0.00000837,0.00000346,0.00001196,-0.00000624,-0.00198271,0.002319
 53,0.00666111,-0.00003050,0.00125683,0.00012090,-0.00021177,-0.0004389
 6,-0.00041458,-0.04893838,-0.00684924,-0.02528875,0.00001591,-0.000006
 10,0.00000523,-0.00000152,0.00000155,0.00000485,0.00000231,0.00000130,
 0.00000062,0.00000658,0.00000320,0.00000018,0.00000146,0.00000745,0.00
 000020,-0.00000131,0.00000029,0.00000159,0.00000824,-0.00000251,-0.000
 00606,-0.00000013,-0.00000095,-0.00000071,-0.00000147,-0.00000708,0.00
 000418,-0.00000718,-0.00000362,0.00000854,0.00000535,-0.00000788,-0.00
 001743,0.00000015,0.,-0.00000015,-0.00000559,-0.00001075,-0.00000295,-
 0.00000269,-0.00000272,-0.00000132,0.00027749,-0.00002789,0.00027852,0
 .00056784,0.00017615,0.00035011,0.00006729,0.00001823,-0.00033490,0.00
 013453,-0.00019550,0.00001614,0.00003150,-0.00000757,-0.00009405,-0.00
 010467,0.00006954,0.00007167,0.00245848,0.00582560,0.01966717,0.048041
 72,-0.00005923,0.00000853,0.00013499,0.00000870,0.00000719,0.00000537,
 0.00002507,-0.00001864,-0.00008643,0.00034055,0.00031544,-0.00007626,-
 0.00189645,0.00164269,0.00022808,-0.00000182,0.00000202,-0.00000782,0.
 00002095,-0.00000889,-0.00000202,0.00002685,-0.00004895,-0.00004036,-0
 .00002610,0.00001249,-0.00000248,-0.00349423,-0.00876694,-0.03188473,0
 .00144811,-0.00644048,0.00009683,0.00055851,0.00157191,-0.00128574,-0.
 00571775,-0.05925565,-0.05634555,-0.00000337,-0.00000203,0.00000361,0.
 00000920,0.00000228,0.00000274,-0.00000057,-0.00000042,0.00000075,0.00
 000066,-0.00000115,-0.00000070,-0.00000563,-0.00000167,0.00000079,-0.0
 0000039,0.00000032,0.00000071,0.00000241,-0.00000285,-0.00000486,-0.00
 000171,0.00000063,0.00000242,0.00000275,-0.00001802,0.00000495,-0.0000
 1610,0.00002202,0.00002125,0.00000683,0.00004326,0.00005726,-0.0000332
 4,0.00000722,0.00000941,0.00002233,0.00004262,-0.00003058,0.00002289,0
 .00001269,0.00002177,-0.00016184,0.00011854,0.00024835,-0.00004722,-0.
 00047098,-0.00202999,0.00011337,0.00008238,0.00008022,-0.00026861,-0.0
 0020645,0.00062975,-0.00004246,-0.00007631,0.00006280,0.00024772,0.000
 28309,0.00026714,0.00330473,0.00426178,0.01779741,0.00560958,0.0664331
 3,0.00026928,0.00006873,-0.00007239,0.00004997,-0.00007487,0.00000982,
 0.00001690,-0.00014997,-0.00004583,0.00060174,0.00039868,0.00051020,-0
 .00050628,0.00022399,0.00110093,-0.00000248,-0.00003055,-0.00002588,0.
 00003448,-0.00001594,0.00003760,-0.00000402,-0.00001581,-0.00004086,-0
 .00003269,-0.00002407,0.00001778,-0.00089578,0.00030527,-0.00591216,0.
 00053004,-0.00197472,0.00112836,0.00023420,0.00086913,0.00052052,-0.02
 468161,-0.05945871,-0.30265429,0.00001793,-0.00000571,0.00000910,0.000
 01095,0.00000100,0.00001597,-0.00000203,0.00000659,-0.00000205,0.00001
 261,0.00000563,0.00000772,-0.00000903,0.00000957,0.00001364,-0.0000059
 0,0.00000008,0.00000068,0.00001569,-0.00000436,-0.00001612,-0.00000174
 ,0.00000650,-0.00000606,-0.00000795,0.00000552,0.00000259,0.00000031,0
 .00000580,0.00000368,0.00001844,-0.00001096,0.00003987,-0.00001548,0.0
 0000747,0.00000363,0.00001593,0.00003051,-0.00001461,0.00001749,-0.000
 00847,0.00001246,0.00001594,0.00021295,0.00024108,-0.00005100,-0.00020
 961,-0.00043713,-0.00006705,0.00016035,0.00021408,-0.00034787,-0.00018
 618,0.00057215,0.00011091,0.00001949,-0.00000552,0.00004849,-0.0001083
 8,0.00031132,-0.00323522,-0.00429222,-0.01504143,0.02762162,0.06557239
 ,0.32660204,-0.00001001,-0.00089369,0.00060465,-0.00024088,0.00022559,
 -0.00008747,0.00019691,0.00040058,-0.00008250,-0.00090712,0.00140404,0
 .00000598,-0.00096902,0.00060730,0.00044540,-0.00001178,0.00014025,0.0
 0004688,-0.00004715,0.00001202,-0.00017245,-0.00001508,0.00007689,0.00
 000961,-0.00006633,0.00007398,-0.00009635,-0.00645073,-0.00172702,-0.0
 0208267,-0.00012838,-0.00051031,-0.00041990,-0.00020660,-0.00148047,0.
 00009040,-0.28706222,0.04947640,-0.07286558,-0.00007533,0.00008599,-0.
 00009303,-0.00002744,0.00002752,-0.00005644,0.00000510,-0.00001831,0.0
 0001139,-0.00006406,-0.00002140,-0.00003715,0.00001485,-0.00000974,-0.
 00001123,0.00001897,0.00000725,0.00000060,-0.00005953,0.00003056,0.000
 03914,0.00000934,-0.00001804,0.00000841,0.00003669,0.00000864,-0.00003
 390,0.00000906,0.00002628,-0.00004425,0.00001286,-0.00000887,0.0000141
 1,0.00000042,-0.00001848,-0.00000284,0.00003507,-0.00000082,0.00001591
 ,-0.00000408,0.00007673,0.00001936,0.00049548,0.00002065,0.00047543,0.
 00032621,-0.00001433,0.00017494,0.00000535,0.00006624,-0.00005454,-0.0
 0000659,0.00009846,0.00003565,0.00082082,-0.00035053,0.00008192,0.0004
 3074,0.00001956,0.00019047,-0.01575217,0.00479271,-0.00682340,-0.00135
 573,0.00000553,0.00022322,0.31104236,0.00111727,0.00085904,-0.00096939
 ,0.00006298,-0.00021420,0.00008068,0.00022096,0.00022820,-0.00015211,-
 0.00182850,-0.00015858,0.00134440,0.00237910,-0.00662716,-0.00022893,0
 .00008670,-0.00008992,-0.00001921,0.00007643,-0.00004424,0.00009998,0.
 00001326,0.00005934,-0.00009899,0.00005581,-0.00001104,0.00012610,0.02
 852960,-0.00558315,0.00931583,0.00030429,0.00105043,0.00074238,0.00114
 585,0.00076915,0.00027675,0.04524993,-0.05612869,0.01354741,0.00014038
 ,0.00002659,0.00002552,0.00006698,0.00001238,0.00002216,0.00001205,0.0
 0002098,-0.00000394,0.00004168,0.00003730,0.00001832,-0.00001679,-0.00
 000557,0.00000291,-0.00001608,-0.00000149,0.00001155,0.00003996,-0.000
 01131,-0.00003918,0.00001247,0.00001354,-0.00001877,-0.00004716,-0.000
 02576,0.00003483,-0.00002287,-0.00002893,0.00002979,-0.00001326,0.0000
 1035,0.00001188,0.00000100,0.00000707,-0.00000277,-0.00003618,-0.00002
 581,-0.00002477,-0.00002720,-0.00008787,-0.00002637,-0.00027362,-0.000
 23259,-0.00055971,-0.00031723,0.00019310,0.00020718,-0.00003971,0.0000
 1261,-0.00007357,-0.00010923,-0.00003225,0.00005289,-0.00063730,-0.000
 85779,0.00023836,-0.00015058,0.00042668,-0.00027516,-0.01594983,0.0038
 6532,-0.00749937,-0.00745999,0.00044917,-0.00133913,-0.05261116,0.0621
 2511,0.00014730,0.00010205,-0.00000774,0.00012542,-0.00009147,0.000064
 31,-0.00013153,-0.00025586,0.00009127,0.00104851,-0.00009989,0.0000530
 4,0.00036677,-0.00055051,0.00113376,-0.00001884,0.00000547,-0.00002028
 ,-0.00002095,0.00001060,0.00000464,0.00000444,-0.00003481,-0.00002990,
 -0.00001034,0.00002999,-0.00001386,0.00409642,-0.00074562,-0.00084741,
 0.00038128,-0.00020253,-0.00003879,-0.00010254,0.00019195,0.00001191,-
 0.07315414,0.01478795,-0.06926520,0.00002173,-0.00002269,0.00003650,0.
 00001198,-0.00001127,0.00001534,-0.00000321,0.00000260,-0.00000036,0.0
 0000162,-0.00000702,0.00000050,0.00000038,0.00000025,0.00000243,0.0000
 0341,-0.00000263,-0.00000545,-0.00000226,-0.00000279,0.00000506,-0.000
 00414,0.00000085,-0.00000080,-0.00000429,0.00000574,-0.00000172,0.0000
 0420,0.00000492,0.00000285,0.00000200,0.00001521,0.00000800,0.00000784
 ,-0.00000529,-0.00000338,0.00000113,0.00000111,0.00000501,0.00000528,0
 .00000906,-0.00000351,0.00007654,-0.00039301,-0.00007059,0.00001333,0.
 00016623,0.00010027,0.00006335,-0.00001293,-0.00001696,-0.00009051,0.0
 0004341,-0.00002503,0.00013365,0.00040209,0.00018246,0.00016885,-0.000
 08386,-0.00007667,0.01555917,-0.00494823,0.00563571,-0.02917208,0.0065
 4852,-0.00710087,0.08047024,-0.01485756,0.07017545\\-0.00000252,0.0000
 0028,0.00001491,-0.00000269,0.00000269,-0.00000753,0.00001661,-0.00000
 590,0.00000287,0.00000087,0.00000863,-0.00000266,0.00000841,-0.0000020
 7,0.00000659,0.00000045,-0.00000478,-0.00000063,-0.00000276,-0.0000025
 2,0.00001039,-0.00000100,0.00000009,-0.00000983,-0.00001927,-0.0000075
 1,-0.00001962,-0.00002491,-0.00000024,-0.00000732,0.00001444,0.,0.0000
 0817,0.00000988,-0.00000036,-0.00000318,0.00000491,-0.00000378,0.00000
 294,-0.00000154,-0.00000234,0.00000152,-0.00000173,0.00000064,0.000001
 16,0.00000207,-0.00000198,0.00000107,0.00000163,-0.00000458,0.00000008
 ,0.00000151,-0.00000307,0.00000254,-0.00000014,-0.00000089,-0.00000324
 ,0.00000218,-0.00000355,-0.00000145,0.00000188,-0.00000115,-0.00000191
 ,-0.00000764,-0.00000104,-0.00000089,-0.00000154,-0.00000201,0.0000006
 1,-0.00000103,-0.00000104,0.00000258,0.00000358,-0.00000251,0.00000285
 ,-0.00000261,0.00000290,0.00000087,0.00000588,0.00000679,0.00000483,0.
 00000004,0.00000244,-0.00000250,-0.00001155,0.00000463,-0.00000132,0.0
 0000116,0.00000166,-0.00000078,-0.00000112,0.00000318,0.00000169,-0.00
 000235,0.00000477,-0.00000014,0.00000033,0.00000103,-0.00000184,0.0000
 0387,0.00000388,-0.00000022,0.00000353,0.00000405,0.00000013,0.0000011
 5,0.00000366,-0.00000071\\\@


 MATERIAL COPIED FROM ONE SCHOLARLY BOOK WITHOUT CREDIT COMPRISES PLAGIARISM.
 MATERIAL COPIED FROM TWO SCHOLARLY BOOKS COMPRISES AN ESSAY.
 MATERIAL COPIED FROM THREE SCHOLARLY BOOKS COMPRISES A DISSERTATION.
 MATERIAL COPIED FROM FOUR SCHOLARLY BOOKS COMPRISES A FIFTH SCHOLARLY BOOK.

                               -- C&EN, 25 FEB 1980
 Job cpu time:       1 days 18 hours  5 minutes 38.6 seconds.
 File lengths (MBytes):  RWF=    642 Int=      0 D2E=      0 Chk=     21 Scr=      1
 Normal termination of Gaussian 09 at Mon Jun 21 05:28:28 2021.
