 Entering Gaussian System, Link 0=g09
 Input=NHC20.gjf
 Output=NHC20.log
 Initial command:
 /usr/local/gqt/g09/l1.exe "/usr/local/gqt/lixogaussian/Gau-18342.inp" -scrdir="/usr/local/gqt/lixogaussian/"
 Entering Link 1 = /usr/local/gqt/g09/l1.exe PID=     18344.
  
 Copyright (c) 1988,1990,1992,1993,1995,1998,2003,2009,2013,
            Gaussian, Inc.  All Rights Reserved.
  
 This is part of the Gaussian(R) 09 program.  It is based on
 the Gaussian(R) 03 system (copyright 2003, Gaussian, Inc.),
 the Gaussian(R) 98 system (copyright 1998, Gaussian, Inc.),
 the Gaussian(R) 94 system (copyright 1995, Gaussian, Inc.),
 the Gaussian 92(TM) system (copyright 1992, Gaussian, Inc.),
 the Gaussian 90(TM) system (copyright 1990, Gaussian, Inc.),
 the Gaussian 88(TM) system (copyright 1988, Gaussian, Inc.),
 the Gaussian 86(TM) system (copyright 1986, Carnegie Mellon
 University), and the Gaussian 82(TM) system (copyright 1983,
 Carnegie Mellon University). Gaussian is a federally registered
 trademark of Gaussian, Inc.
  
 This software contains proprietary and confidential information,
 including trade secrets, belonging to Gaussian, Inc.
  
 This software is provided under written license and may be
 used, copied, transmitted, or stored only in accord with that
 written license.
  
 The following legend is applicable only to US Government
 contracts under FAR:
  
                    RESTRICTED RIGHTS LEGEND
  
 Use, reproduction and disclosure by the US Government is
 subject to restrictions as set forth in subparagraphs (a)
 and (c) of the Commercial Computer Software - Restricted
 Rights clause in FAR 52.227-19.
  
 Gaussian, Inc.
 340 Quinnipiac St., Bldg. 40, Wallingford CT 06492
  
  
 ---------------------------------------------------------------
 Warning -- This program may not be used in any manner that
 competes with the business of Gaussian, Inc. or will provide
 assistance to any competitor of Gaussian, Inc.  The licensee
 of this program is prohibited from giving any competitor of
 Gaussian, Inc. access to this program.  By using this program,
 the user acknowledges that Gaussian, Inc. is engaged in the
 business of creating and licensing software in the field of
 computational chemistry and represents and warrants to the
 licensee that it is not a competitor of Gaussian, Inc. and that
 it will not use this program in any manner prohibited above.
 ---------------------------------------------------------------
  

 Cite this work as:
 Gaussian 09, Revision D.01,
 M. J. Frisch, G. W. Trucks, H. B. Schlegel, G. E. Scuseria, 
 M. A. Robb, J. R. Cheeseman, G. Scalmani, V. Barone, B. Mennucci, 
 G. A. Petersson, H. Nakatsuji, M. Caricato, X. Li, H. P. Hratchian, 
 A. F. Izmaylov, J. Bloino, G. Zheng, J. L. Sonnenberg, M. Hada, 
 M. Ehara, K. Toyota, R. Fukuda, J. Hasegawa, M. Ishida, T. Nakajima, 
 Y. Honda, O. Kitao, H. Nakai, T. Vreven, J. A. Montgomery, Jr., 
 J. E. Peralta, F. Ogliaro, M. Bearpark, J. J. Heyd, E. Brothers, 
 K. N. Kudin, V. N. Staroverov, T. Keith, R. Kobayashi, J. Normand, 
 K. Raghavachari, A. Rendell, J. C. Burant, S. S. Iyengar, J. Tomasi, 
 M. Cossi, N. Rega, J. M. Millam, M. Klene, J. E. Knox, J. B. Cross, 
 V. Bakken, C. Adamo, J. Jaramillo, R. Gomperts, R. E. Stratmann, 
 O. Yazyev, A. J. Austin, R. Cammi, C. Pomelli, J. W. Ochterski, 
 R. L. Martin, K. Morokuma, V. G. Zakrzewski, G. A. Voth, 
 P. Salvador, J. J. Dannenberg, S. Dapprich, A. D. Daniels, 
 O. Farkas, J. B. Foresman, J. V. Ortiz, J. Cioslowski, 
 and D. J. Fox, Gaussian, Inc., Wallingford CT, 2013.
 
 ******************************************
 Gaussian 09:  ES64L-G09RevD.01 24-Apr-2013
                 8-Jun-2021 
 ******************************************
 %nprocshared=16
 Will use up to   16 processors via shared memory.
 %mem=25GB
 %chk=NHC20.chk
 ----------------------------------------------------------
 #p opt freq n12sx/6-311+g(d,p) scrf=(iefpcm,solvent=water)
 ----------------------------------------------------------
 1/14=-1,18=20,19=15,26=3,38=1/1,3;
 2/9=110,12=2,17=6,18=5,40=1/2;
 3/5=4,6=6,7=111,11=2,16=1,25=1,30=1,70=2201,71=1,72=1,74=-69/1,2,3;
 4//1;
 5/5=2,38=5,53=1/2;
 6/7=2,8=2,9=2,10=2,28=1/1;
 7//1,2,3,16;
 1/14=-1,18=20,19=15,26=3/3(2);
 2/9=110/2;
 99//99;
 2/9=110/2;
 3/5=4,6=6,7=111,11=2,16=1,25=1,30=1,70=2205,71=1,72=1,74=-69/1,2,3;
 4/5=5,16=3,69=1/1;
 5/5=2,38=5,53=1/2;
 7//1,2,3,16;
 1/14=-1,18=20,19=15,26=3/3(-5);
 2/9=110/2;
 6/7=2,8=2,9=2,10=2,19=2,28=1/1;
 99/9=1/99;
 Leave Link    1 at Tue Jun  8 10:23:53 2021, MaxMem=  3355443200 cpu:         0.8
 (Enter /usr/local/gqt/g09/l101.exe)
 -----
 TITLE
 -----
 Symbolic Z-matrix:
 Charge =  0 Multiplicity = 1
 C                    0    -2.88971   1.16215  -0.32916 
 N                    0    -2.80963  -0.19934  -0.21046 
 C                    0    -2.05801  -0.75181   0.89965 
 N                    0    -0.78956  -0.05928   1.0177 
 C                    0    -0.78305   1.3114    0.94043 
 C                    0    -1.55886   1.86633  -0.22887 
 C                    0    -1.78852   3.35779  -0.02313 
 C                    0    -0.7696    1.64581  -1.5126 
 O                    0    -3.93265   1.74755  -0.49901 
 O                    0    -0.20686   2.01174   1.73842 
 C                    0    -3.46074  -1.06799  -1.17171 
 C                    0    -4.17109  -0.22304  -2.22099 
 C                    0    -4.47774  -1.94579  -0.45427 
 C                    0    -2.41779  -1.9471   -1.84918 
 C                    0     0.44327  -0.79723   1.2128 
 C                    0     0.14069  -2.28912   1.26022 
 C                    0     1.08835  -0.36888   2.52426 
 C                    0     1.39519  -0.50893   0.05943 
 H                    0    -2.36071   3.76798  -0.88516 
 H                    0    -0.80685   3.87706   0.05068 
 H                    0    -2.36554   3.51819   0.915 
 H                    0     0.1874    1.12904  -1.27623 
 H                    0    -1.36672   1.01824  -2.21144 
 H                    0    -0.55278   2.62852  -1.98806 
 H                    0    -3.4287    0.41888  -2.74592 
 H                    0    -4.6705   -0.89072  -2.95827 
 H                    0    -4.93283   0.41987  -1.72582 
 H                    0    -3.9596   -2.56375   0.31282 
 H                    0    -4.97706  -2.61301  -1.19202 
 H                    0    -5.23939  -1.30242   0.04043 
 H                    0    -2.42849  -1.75821  -2.94598 
 H                    0    -1.41014  -1.7074   -1.44179 
 H                    0    -2.65244  -3.01761  -1.65494 
 H                    0    -0.3308   -2.60321   0.3022 
 H                    0     1.08757  -2.85458   1.41 
 H                    0    -0.55548  -2.49971   2.1027 
 H                    0     1.3099    0.72133   2.49065 
 H                    0     2.03498  -0.93485   2.67371 
 H                    0     0.39193  -0.57998   3.36641 
 H                    0     1.63806  -1.45843  -0.46804 
 H                    0     0.91171   0.19706  -0.65232 
 H                    0     2.331    -0.05496   0.4556 
 
 NAtoms=     42 NQM=       42 NQMF=       0 NMMI=      0 NMMIF=      0
                NMic=       0 NMicF=      0.
                    Isotopes and Nuclear Properties:
 (Nuclear quadrupole moments (NQMom) in fm**2, nuclear magnetic moments (NMagM)
  in nuclear magnetons)

  Atom         1           2           3           4           5           6           7           8           9          10
 IAtWgt=          12          14          12          14          12          12          12          12          16          16
 AtmWgt=  12.0000000  14.0030740  12.0000000  14.0030740  12.0000000  12.0000000  12.0000000  12.0000000  15.9949146  15.9949146
 NucSpn=           0           2           0           2           0           0           0           0           0           0
 AtZEff=   0.0000000   0.0000000   0.0000000   0.0000000   0.0000000   0.0000000   0.0000000   0.0000000   0.0000000   0.0000000
 NQMom=    0.0000000   2.0440000   0.0000000   2.0440000   0.0000000   0.0000000   0.0000000   0.0000000   0.0000000   0.0000000
 NMagM=    0.0000000   0.4037610   0.0000000   0.4037610   0.0000000   0.0000000   0.0000000   0.0000000   0.0000000   0.0000000
 AtZNuc=   6.0000000   7.0000000   6.0000000   7.0000000   6.0000000   6.0000000   6.0000000   6.0000000   8.0000000   8.0000000

  Atom        11          12          13          14          15          16          17          18          19          20
 IAtWgt=          12          12          12          12          12          12          12          12           1           1
 AtmWgt=  12.0000000  12.0000000  12.0000000  12.0000000  12.0000000  12.0000000  12.0000000  12.0000000   1.0078250   1.0078250
 NucSpn=           0           0           0           0           0           0           0           0           1           1
 AtZEff=   0.0000000   0.0000000   0.0000000   0.0000000   0.0000000   0.0000000   0.0000000   0.0000000   0.0000000   0.0000000
 NQMom=    0.0000000   0.0000000   0.0000000   0.0000000   0.0000000   0.0000000   0.0000000   0.0000000   0.0000000   0.0000000
 NMagM=    0.0000000   0.0000000   0.0000000   0.0000000   0.0000000   0.0000000   0.0000000   0.0000000   2.7928460   2.7928460
 AtZNuc=   6.0000000   6.0000000   6.0000000   6.0000000   6.0000000   6.0000000   6.0000000   6.0000000   1.0000000   1.0000000

  Atom        21          22          23          24          25          26          27          28          29          30
 IAtWgt=           1           1           1           1           1           1           1           1           1           1
 AtmWgt=   1.0078250   1.0078250   1.0078250   1.0078250   1.0078250   1.0078250   1.0078250   1.0078250   1.0078250   1.0078250
 NucSpn=           1           1           1           1           1           1           1           1           1           1
 AtZEff=   0.0000000   0.0000000   0.0000000   0.0000000   0.0000000   0.0000000   0.0000000   0.0000000   0.0000000   0.0000000
 NQMom=    0.0000000   0.0000000   0.0000000   0.0000000   0.0000000   0.0000000   0.0000000   0.0000000   0.0000000   0.0000000
 NMagM=    2.7928460   2.7928460   2.7928460   2.7928460   2.7928460   2.7928460   2.7928460   2.7928460   2.7928460   2.7928460
 AtZNuc=   1.0000000   1.0000000   1.0000000   1.0000000   1.0000000   1.0000000   1.0000000   1.0000000   1.0000000   1.0000000

  Atom        31          32          33          34          35          36          37          38          39          40
 IAtWgt=           1           1           1           1           1           1           1           1           1           1
 AtmWgt=   1.0078250   1.0078250   1.0078250   1.0078250   1.0078250   1.0078250   1.0078250   1.0078250   1.0078250   1.0078250
 NucSpn=           1           1           1           1           1           1           1           1           1           1
 AtZEff=   0.0000000   0.0000000   0.0000000   0.0000000   0.0000000   0.0000000   0.0000000   0.0000000   0.0000000   0.0000000
 NQMom=    0.0000000   0.0000000   0.0000000   0.0000000   0.0000000   0.0000000   0.0000000   0.0000000   0.0000000   0.0000000
 NMagM=    2.7928460   2.7928460   2.7928460   2.7928460   2.7928460   2.7928460   2.7928460   2.7928460   2.7928460   2.7928460
 AtZNuc=   1.0000000   1.0000000   1.0000000   1.0000000   1.0000000   1.0000000   1.0000000   1.0000000   1.0000000   1.0000000

  Atom        41          42
 IAtWgt=           1           1
 AtmWgt=   1.0078250   1.0078250
 NucSpn=           1           1
 AtZEff=   0.0000000   0.0000000
 NQMom=    0.0000000   0.0000000
 NMagM=    2.7928460   2.7928460
 AtZNuc=   1.0000000   1.0000000
 Leave Link  101 at Tue Jun  8 10:23:53 2021, MaxMem=  3355443200 cpu:         7.0
 (Enter /usr/local/gqt/g09/l103.exe)

 GradGradGradGradGradGradGradGradGradGradGradGradGradGradGradGradGradGrad
 Berny optimization.
 Initialization pass.
                           ----------------------------
                           !    Initial Parameters    !
                           ! (Angstroms and Degrees)  !
 --------------------------                            --------------------------
 ! Name  Definition              Value          Derivative Info.                !
 --------------------------------------------------------------------------------
 ! R1    R(1,2)                  1.369          estimate D2E/DX2                !
 ! R2    R(1,6)                  1.509          estimate D2E/DX2                !
 ! R3    R(1,9)                  1.208          estimate D2E/DX2                !
 ! R4    R(2,3)                  1.45           estimate D2E/DX2                !
 ! R5    R(2,11)                 1.45           estimate D2E/DX2                !
 ! R6    R(3,4)                  1.45           estimate D2E/DX2                !
 ! R7    R(4,5)                  1.3729         estimate D2E/DX2                !
 ! R8    R(4,15)                 1.45           estimate D2E/DX2                !
 ! R9    R(5,6)                  1.509          estimate D2E/DX2                !
 ! R10   R(5,10)                 1.208          estimate D2E/DX2                !
 ! R11   R(6,7)                  1.523          estimate D2E/DX2                !
 ! R12   R(6,8)                  1.523          estimate D2E/DX2                !
 ! R13   R(7,19)                 1.113          estimate D2E/DX2                !
 ! R14   R(7,20)                 1.113          estimate D2E/DX2                !
 ! R15   R(7,21)                 1.113          estimate D2E/DX2                !
 ! R16   R(8,22)                 1.113          estimate D2E/DX2                !
 ! R17   R(8,23)                 1.113          estimate D2E/DX2                !
 ! R18   R(8,24)                 1.113          estimate D2E/DX2                !
 ! R19   R(11,12)                1.523          estimate D2E/DX2                !
 ! R20   R(11,13)                1.523          estimate D2E/DX2                !
 ! R21   R(11,14)                1.523          estimate D2E/DX2                !
 ! R22   R(12,25)                1.113          estimate D2E/DX2                !
 ! R23   R(12,26)                1.113          estimate D2E/DX2                !
 ! R24   R(12,27)                1.113          estimate D2E/DX2                !
 ! R25   R(13,28)                1.113          estimate D2E/DX2                !
 ! R26   R(13,29)                1.113          estimate D2E/DX2                !
 ! R27   R(13,30)                1.113          estimate D2E/DX2                !
 ! R28   R(14,31)                1.113          estimate D2E/DX2                !
 ! R29   R(14,32)                1.113          estimate D2E/DX2                !
 ! R30   R(14,33)                1.113          estimate D2E/DX2                !
 ! R31   R(15,16)                1.523          estimate D2E/DX2                !
 ! R32   R(15,17)                1.523          estimate D2E/DX2                !
 ! R33   R(15,18)                1.523          estimate D2E/DX2                !
 ! R34   R(16,34)                1.113          estimate D2E/DX2                !
 ! R35   R(16,35)                1.113          estimate D2E/DX2                !
 ! R36   R(16,36)                1.113          estimate D2E/DX2                !
 ! R37   R(17,37)                1.113          estimate D2E/DX2                !
 ! R38   R(17,38)                1.113          estimate D2E/DX2                !
 ! R39   R(17,39)                1.113          estimate D2E/DX2                !
 ! R40   R(18,40)                1.113          estimate D2E/DX2                !
 ! R41   R(18,41)                1.113          estimate D2E/DX2                !
 ! R42   R(18,42)                1.113          estimate D2E/DX2                !
 ! A1    A(2,1,6)              114.0            estimate D2E/DX2                !
 ! A2    A(2,1,9)              123.0            estimate D2E/DX2                !
 ! A3    A(6,1,9)              123.0            estimate D2E/DX2                !
 ! A4    A(1,2,3)              118.4            estimate D2E/DX2                !
 ! A5    A(1,2,11)             120.8            estimate D2E/DX2                !
 ! A6    A(3,2,11)             120.8            estimate D2E/DX2                !
 ! A7    A(2,3,4)              109.5            estimate D2E/DX2                !
 ! A8    A(3,4,5)              118.4512         estimate D2E/DX2                !
 ! A9    A(3,4,15)             120.7744         estimate D2E/DX2                !
 ! A10   A(5,4,15)             120.7744         estimate D2E/DX2                !
 ! A11   A(4,5,6)              114.1001         estimate D2E/DX2                !
 ! A12   A(4,5,10)             122.9499         estimate D2E/DX2                !
 ! A13   A(6,5,10)             122.9499         estimate D2E/DX2                !
 ! A14   A(1,6,5)              109.47           estimate D2E/DX2                !
 ! A15   A(1,6,7)              109.4493         estimate D2E/DX2                !
 ! A16   A(1,6,8)              109.4793         estimate D2E/DX2                !
 ! A17   A(5,6,7)              109.4493         estimate D2E/DX2                !
 ! A18   A(5,6,8)              109.4794         estimate D2E/DX2                !
 ! A19   A(7,6,8)              109.5            estimate D2E/DX2                !
 ! A20   A(6,7,19)             109.5            estimate D2E/DX2                !
 ! A21   A(6,7,20)             109.4418         estimate D2E/DX2                !
 ! A22   A(6,7,21)             109.4618         estimate D2E/DX2                !
 ! A23   A(19,7,20)            109.4418         estimate D2E/DX2                !
 ! A24   A(19,7,21)            109.4619         estimate D2E/DX2                !
 ! A25   A(20,7,21)            109.52           estimate D2E/DX2                !
 ! A26   A(6,8,22)             109.5            estimate D2E/DX2                !
 ! A27   A(6,8,23)             109.4419         estimate D2E/DX2                !
 ! A28   A(6,8,24)             109.4618         estimate D2E/DX2                !
 ! A29   A(22,8,23)            109.4419         estimate D2E/DX2                !
 ! A30   A(22,8,24)            109.4618         estimate D2E/DX2                !
 ! A31   A(23,8,24)            109.52           estimate D2E/DX2                !
 ! A32   A(2,11,12)            109.5            estimate D2E/DX2                !
 ! A33   A(2,11,13)            109.4418         estimate D2E/DX2                !
 ! A34   A(2,11,14)            109.4619         estimate D2E/DX2                !
 ! A35   A(12,11,13)           109.4418         estimate D2E/DX2                !
 ! A36   A(12,11,14)           109.4618         estimate D2E/DX2                !
 ! A37   A(13,11,14)           109.52           estimate D2E/DX2                !
 ! A38   A(11,12,25)           109.5            estimate D2E/DX2                !
 ! A39   A(11,12,26)           109.4418         estimate D2E/DX2                !
 ! A40   A(11,12,27)           109.4618         estimate D2E/DX2                !
 ! A41   A(25,12,26)           109.4418         estimate D2E/DX2                !
 ! A42   A(25,12,27)           109.4619         estimate D2E/DX2                !
 ! A43   A(26,12,27)           109.52           estimate D2E/DX2                !
 ! A44   A(11,13,28)           109.5            estimate D2E/DX2                !
 ! A45   A(11,13,29)           109.4418         estimate D2E/DX2                !
 ! A46   A(11,13,30)           109.4618         estimate D2E/DX2                !
 ! A47   A(28,13,29)           109.4419         estimate D2E/DX2                !
 ! A48   A(28,13,30)           109.4619         estimate D2E/DX2                !
 ! A49   A(29,13,30)           109.52           estimate D2E/DX2                !
 ! A50   A(11,14,31)           109.5            estimate D2E/DX2                !
 ! A51   A(11,14,32)           109.4418         estimate D2E/DX2                !
 ! A52   A(11,14,33)           109.4619         estimate D2E/DX2                !
 ! A53   A(31,14,32)           109.4418         estimate D2E/DX2                !
 ! A54   A(31,14,33)           109.4618         estimate D2E/DX2                !
 ! A55   A(32,14,33)           109.52           estimate D2E/DX2                !
 ! A56   A(4,15,16)            109.5            estimate D2E/DX2                !
 ! A57   A(4,15,17)            109.4419         estimate D2E/DX2                !
 ! A58   A(4,15,18)            109.4618         estimate D2E/DX2                !
 ! A59   A(16,15,17)           109.4418         estimate D2E/DX2                !
 ! A60   A(16,15,18)           109.4618         estimate D2E/DX2                !
 ! A61   A(17,15,18)           109.52           estimate D2E/DX2                !
 ! A62   A(15,16,34)           109.5            estimate D2E/DX2                !
 ! A63   A(15,16,35)           109.4418         estimate D2E/DX2                !
 ! A64   A(15,16,36)           109.4618         estimate D2E/DX2                !
 ! A65   A(34,16,35)           109.4418         estimate D2E/DX2                !
 ! A66   A(34,16,36)           109.4618         estimate D2E/DX2                !
 ! A67   A(35,16,36)           109.52           estimate D2E/DX2                !
 ! A68   A(15,17,37)           109.5            estimate D2E/DX2                !
 ! A69   A(15,17,38)           109.4418         estimate D2E/DX2                !
 ! A70   A(15,17,39)           109.4619         estimate D2E/DX2                !
 ! A71   A(37,17,38)           109.4418         estimate D2E/DX2                !
 ! A72   A(37,17,39)           109.4618         estimate D2E/DX2                !
 ! A73   A(38,17,39)           109.52           estimate D2E/DX2                !
 ! A74   A(15,18,40)           109.5            estimate D2E/DX2                !
 ! A75   A(15,18,41)           109.4418         estimate D2E/DX2                !
 ! A76   A(15,18,42)           109.4618         estimate D2E/DX2                !
 ! A77   A(40,18,41)           109.4419         estimate D2E/DX2                !
 ! A78   A(40,18,42)           109.4619         estimate D2E/DX2                !
 ! A79   A(41,18,42)           109.5199         estimate D2E/DX2                !
 ! D1    D(6,1,2,3)             49.3313         estimate D2E/DX2                !
 ! D2    D(6,1,2,11)          -130.6686         estimate D2E/DX2                !
 ! D3    D(9,1,2,3)           -130.6687         estimate D2E/DX2                !
 ! D4    D(9,1,2,11)            49.3314         estimate D2E/DX2                !
 ! D5    D(2,1,6,5)            -45.9776         estimate D2E/DX2                !
 ! D6    D(2,1,6,7)           -165.9366         estimate D2E/DX2                !
 ! D7    D(2,1,6,8)             74.0366         estimate D2E/DX2                !
 ! D8    D(9,1,6,5)            134.0224         estimate D2E/DX2                !
 ! D9    D(9,1,6,7)             14.0634         estimate D2E/DX2                !
 ! D10   D(9,1,6,8)           -105.9634         estimate D2E/DX2                !
 ! D11   D(1,2,3,4)            -46.0464         estimate D2E/DX2                !
 ! D12   D(11,2,3,4)           133.9535         estimate D2E/DX2                !
 ! D13   D(1,2,11,12)           -0.0001         estimate D2E/DX2                !
 ! D14   D(1,2,11,13)         -119.9637         estimate D2E/DX2                !
 ! D15   D(1,2,11,14)          120.0004         estimate D2E/DX2                !
 ! D16   D(3,2,11,12)         -180.0            estimate D2E/DX2                !
 ! D17   D(3,2,11,13)           60.0364         estimate D2E/DX2                !
 ! D18   D(3,2,11,14)          -59.9996         estimate D2E/DX2                !
 ! D19   D(2,3,4,5)             45.5814         estimate D2E/DX2                !
 ! D20   D(2,3,4,15)          -134.4186         estimate D2E/DX2                !
 ! D21   D(3,4,5,6)            -48.5074         estimate D2E/DX2                !
 ! D22   D(3,4,5,10)           131.4926         estimate D2E/DX2                !
 ! D23   D(15,4,5,6)           131.4926         estimate D2E/DX2                !
 ! D24   D(15,4,5,10)          -48.5073         estimate D2E/DX2                !
 ! D25   D(3,4,15,16)            0.0001         estimate D2E/DX2                !
 ! D26   D(3,4,15,17)         -119.9636         estimate D2E/DX2                !
 ! D27   D(3,4,15,18)          120.0004         estimate D2E/DX2                !
 ! D28   D(5,4,15,16)          180.0            estimate D2E/DX2                !
 ! D29   D(5,4,15,17)           60.0363         estimate D2E/DX2                !
 ! D30   D(5,4,15,18)          -59.9997         estimate D2E/DX2                !
 ! D31   D(4,5,6,1)             45.5726         estimate D2E/DX2                !
 ! D32   D(4,5,6,7)            165.5316         estimate D2E/DX2                !
 ! D33   D(4,5,6,8)            -74.4416         estimate D2E/DX2                !
 ! D34   D(10,5,6,1)          -134.4275         estimate D2E/DX2                !
 ! D35   D(10,5,6,7)           -14.4685         estimate D2E/DX2                !
 ! D36   D(10,5,6,8)           105.5584         estimate D2E/DX2                !
 ! D37   D(1,6,7,19)           -60.0283         estimate D2E/DX2                !
 ! D38   D(1,6,7,20)          -179.9919         estimate D2E/DX2                !
 ! D39   D(1,6,7,21)            59.9722         estimate D2E/DX2                !
 ! D40   D(5,6,7,19)           180.0            estimate D2E/DX2                !
 ! D41   D(5,6,7,20)            60.0364         estimate D2E/DX2                !
 ! D42   D(5,6,7,21)           -59.9995         estimate D2E/DX2                !
 ! D43   D(8,6,7,19)            59.9858         estimate D2E/DX2                !
 ! D44   D(8,6,7,20)           -59.9778         estimate D2E/DX2                !
 ! D45   D(8,6,7,21)           179.9863         estimate D2E/DX2                !
 ! D46   D(1,6,8,22)          -120.0085         estimate D2E/DX2                !
 ! D47   D(1,6,8,23)            -0.0448         estimate D2E/DX2                !
 ! D48   D(1,6,8,24)           119.9912         estimate D2E/DX2                !
 ! D49   D(5,6,8,22)             0.0            estimate D2E/DX2                !
 ! D50   D(5,6,8,23)           119.9636         estimate D2E/DX2                !
 ! D51   D(5,6,8,24)          -120.0003         estimate D2E/DX2                !
 ! D52   D(7,6,8,22)           119.9958         estimate D2E/DX2                !
 ! D53   D(7,6,8,23)          -120.0406         estimate D2E/DX2                !
 ! D54   D(7,6,8,24)            -0.0045         estimate D2E/DX2                !
 ! D55   D(2,11,12,25)          60.0364         estimate D2E/DX2                !
 ! D56   D(2,11,12,26)        -180.0            estimate D2E/DX2                !
 ! D57   D(2,11,12,27)         -59.964          estimate D2E/DX2                !
 ! D58   D(13,11,12,25)       -180.0            estimate D2E/DX2                !
 ! D59   D(13,11,12,26)        -60.0363         estimate D2E/DX2                !
 ! D60   D(13,11,12,27)         59.9996         estimate D2E/DX2                !
 ! D61   D(14,11,12,25)        -59.964          estimate D2E/DX2                !
 ! D62   D(14,11,12,26)         59.9996         estimate D2E/DX2                !
 ! D63   D(14,11,12,27)       -179.9645         estimate D2E/DX2                !
 ! D64   D(2,11,13,28)         -60.0007         estimate D2E/DX2                !
 ! D65   D(2,11,13,29)        -179.9644         estimate D2E/DX2                !
 ! D66   D(2,11,13,30)          59.9997         estimate D2E/DX2                !
 ! D67   D(12,11,13,28)       -180.0            estimate D2E/DX2                !
 ! D68   D(12,11,13,29)         60.0364         estimate D2E/DX2                !
 ! D69   D(12,11,13,30)        -59.9996         estimate D2E/DX2                !
 ! D70   D(14,11,13,28)         59.9997         estimate D2E/DX2                !
 ! D71   D(14,11,13,29)        -59.964          estimate D2E/DX2                !
 ! D72   D(14,11,13,30)       -179.9999         estimate D2E/DX2                !
 ! D73   D(2,11,14,31)        -120.0237         estimate D2E/DX2                !
 ! D74   D(2,11,14,32)          -0.0601         estimate D2E/DX2                !
 ! D75   D(2,11,14,33)         119.9759         estimate D2E/DX2                !
 ! D76   D(12,11,14,31)          0.0            estimate D2E/DX2                !
 ! D77   D(12,11,14,32)        119.9636         estimate D2E/DX2                !
 ! D78   D(12,11,14,33)       -120.0004         estimate D2E/DX2                !
 ! D79   D(13,11,14,31)        119.9881         estimate D2E/DX2                !
 ! D80   D(13,11,14,32)       -120.0483         estimate D2E/DX2                !
 ! D81   D(13,11,14,33)         -0.0123         estimate D2E/DX2                !
 ! D82   D(4,15,16,34)          60.0363         estimate D2E/DX2                !
 ! D83   D(4,15,16,35)         180.0            estimate D2E/DX2                !
 ! D84   D(4,15,16,36)         -59.9641         estimate D2E/DX2                !
 ! D85   D(17,15,16,34)        180.0            estimate D2E/DX2                !
 ! D86   D(17,15,16,35)        -60.0364         estimate D2E/DX2                !
 ! D87   D(17,15,16,36)         59.9996         estimate D2E/DX2                !
 ! D88   D(18,15,16,34)        -59.964          estimate D2E/DX2                !
 ! D89   D(18,15,16,35)         59.9996         estimate D2E/DX2                !
 ! D90   D(18,15,16,36)       -179.9644         estimate D2E/DX2                !
 ! D91   D(4,15,17,37)         -60.0007         estimate D2E/DX2                !
 ! D92   D(4,15,17,38)        -179.9643         estimate D2E/DX2                !
 ! D93   D(4,15,17,39)          59.9997         estimate D2E/DX2                !
 ! D94   D(16,15,17,37)        180.0            estimate D2E/DX2                !
 ! D95   D(16,15,17,38)         60.0364         estimate D2E/DX2                !
 ! D96   D(16,15,17,39)        -59.9996         estimate D2E/DX2                !
 ! D97   D(18,15,17,37)         59.9997         estimate D2E/DX2                !
 ! D98   D(18,15,17,38)        -59.9639         estimate D2E/DX2                !
 ! D99   D(18,15,17,39)       -179.9999         estimate D2E/DX2                !
 ! D100  D(4,15,18,40)        -120.0237         estimate D2E/DX2                !
 ! D101  D(4,15,18,41)          -0.0601         estimate D2E/DX2                !
 ! D102  D(4,15,18,42)         119.9758         estimate D2E/DX2                !
 ! D103  D(16,15,18,40)          0.0            estimate D2E/DX2                !
 ! D104  D(16,15,18,41)        119.9636         estimate D2E/DX2                !
 ! D105  D(16,15,18,42)       -120.0004         estimate D2E/DX2                !
 ! D106  D(17,15,18,40)        119.9881         estimate D2E/DX2                !
 ! D107  D(17,15,18,41)       -120.0483         estimate D2E/DX2                !
 ! D108  D(17,15,18,42)         -0.0123         estimate D2E/DX2                !
 --------------------------------------------------------------------------------
 Trust Radius=3.00D-01 FncErr=1.00D-07 GrdErr=1.00D-06
 Number of steps in this run=    239 maximum allowed number of steps=    252.
 GradGradGradGradGradGradGradGradGradGradGradGradGradGradGradGradGradGrad

 Leave Link  103 at Tue Jun  8 10:23:53 2021, MaxMem=  3355443200 cpu:         0.2
 (Enter /usr/local/gqt/g09/l202.exe)
                          Input orientation:                          
 ---------------------------------------------------------------------
 Center     Atomic      Atomic             Coordinates (Angstroms)
 Number     Number       Type             X           Y           Z
 ---------------------------------------------------------------------
      1          6           0       -2.889710    1.162152   -0.329157
      2          7           0       -2.809627   -0.199339   -0.210464
      3          6           0       -2.058012   -0.751810    0.899649
      4          7           0       -0.789561   -0.059280    1.017695
      5          6           0       -0.783051    1.311400    0.940425
      6          6           0       -1.558859    1.866326   -0.228874
      7          6           0       -1.788517    3.357787   -0.023127
      8          6           0       -0.769595    1.645810   -1.512604
      9          8           0       -3.932650    1.747551   -0.499007
     10          8           0       -0.206861    2.011738    1.738419
     11          6           0       -3.460737   -1.067994   -1.171710
     12          6           0       -4.171093   -0.223043   -2.220987
     13          6           0       -4.477736   -1.945792   -0.454274
     14          6           0       -2.417789   -1.947101   -1.849175
     15          6           0        0.443267   -0.797228    1.212804
     16          6           0        0.140691   -2.289116    1.260218
     17          6           0        1.088347   -0.368878    2.524260
     18          6           0        1.395188   -0.508934    0.059434
     19          1           0       -2.360711    3.767980   -0.885161
     20          1           0       -0.806846    3.877061    0.050675
     21          1           0       -2.365539    3.518191    0.915001
     22          1           0        0.187401    1.129038   -1.276227
     23          1           0       -1.366719    1.018242   -2.211438
     24          1           0       -0.552782    2.628515   -1.988055
     25          1           0       -3.428701    0.418881   -2.745923
     26          1           0       -4.670497   -0.890715   -2.958265
     27          1           0       -4.932828    0.419872   -1.725823
     28          1           0       -3.959598   -2.563746    0.312821
     29          1           0       -4.977059   -2.613012   -1.192015
     30          1           0       -5.239391   -1.302424    0.040426
     31          1           0       -2.428486   -1.758213   -2.945978
     32          1           0       -1.410142   -1.707402   -1.441790
     33          1           0       -2.652441   -3.017606   -1.654941
     34          1           0       -0.330799   -2.603214    0.302195
     35          1           0        1.087571   -2.854584    1.409997
     36          1           0       -0.555476   -2.499710    2.102697
     37          1           0        1.309896    0.721331    2.490654
     38          1           0        2.034979   -0.934849    2.673707
     39          1           0        0.391932   -0.579975    3.366407
     40          1           0        1.638059   -1.458433   -0.468044
     41          1           0        0.911706    0.197055   -0.652321
     42          1           0        2.330995   -0.054962    0.455595
 ---------------------------------------------------------------------
                    Distance matrix (angstroms):
                    1          2          3          4          5
     1  C    0.000000
     2  N    1.368999   0.000000
     3  C    2.421763   1.450000   0.000000
     4  N    2.777865   2.368260   1.450000   0.000000
     5  C    2.464168   2.777389   2.425701   1.372872   0.000000
     6  C    1.509000   2.414898   2.894366   2.419445   1.509000
     7  C    2.475297   3.705524   4.220537   3.709120   2.475297
     8  C    2.475754   3.043333   3.636972   3.051253   2.475755
     9  O    1.208000   2.266014   3.423056   3.929890   3.490296
    10  O    3.492040   3.932098   3.430378   2.268942   1.207999
    11  C    2.451432   1.450000   2.521535   3.598080   4.158441
    12  C    2.672027   2.428241   3.805664   4.685151   4.881380
    13  C    3.492391   2.427371   3.018901   4.396391   5.119100
    14  C    3.492938   2.427670   3.018972   3.799202   4.590432
    15  C    4.162397   3.600623   2.521215   1.450000   2.454457
    16  C    4.860113   3.903133   2.706957   2.428241   3.730855
    17  C    5.129423   4.764626   3.561681   2.427370   2.972204
    18  C    4.615613   4.224827   3.562238   2.427670   2.972286
    19  H    2.716490   4.049242   4.868847   4.553822   3.443336
    20  H    3.442866   4.549325   4.869561   4.053419   2.715665
    21  H    2.715438   3.909465   4.281088   3.910569   2.715666
    22  H    3.219728   3.447117   3.648822   2.761998   2.426639
    23  H    2.425530   2.751070   3.645522   3.452747   3.218827
    24  H    3.219223   4.031121   4.693735   4.039163   3.219287
    25  H    2.585289   2.682163   4.066879   4.621528   4.624415
    26  H    3.781227   3.389874   4.661317   5.617936   5.929699
    27  H    2.583793   2.680992   4.065773   4.992308   5.012420
    28  H    3.929264   2.680799   2.691377   4.101016   5.049861
    29  H    4.399251   3.389251   4.044746   5.379545   6.126827
    30  H    3.425161   2.680204   3.341050   4.722441   5.244143
    31  H    3.948292   3.171497   3.992361   4.613367   5.218631
    32  H    3.414881   2.397702   2.610599   3.024978   3.896326
    33  H    4.391398   3.170781   3.465993   4.400568   5.382456
    34  H    4.596152   3.490848   2.601521   2.682164   3.992001
    35  H    5.914185   4.986419   3.817958   3.389875   4.590768
    36  H    4.977127   3.965302   2.600018   2.680993   3.990893
    37  H    5.077632   5.011401   4.005527   2.680799   2.670546
    38  H    6.137358   5.685915   4.464679   3.389251   3.998899
    39  H    5.240360   4.815482   3.480898   2.680205   3.292913
    40  H    5.233302   4.629641   4.003853   3.171496   3.939230
    41  H    3.935303   3.768380   3.482554   2.397701   2.578916
    42  H    5.417837   5.185603   4.466113   3.170780   3.435009
                    6          7          8          9         10
     6  C    0.000000
     7  C    1.523001   0.000000
     8  C    1.523000   2.487491   0.000000
     9  O    2.392063   2.723349   3.323048   0.000000
    10  O    2.391503   2.723330   3.319597   4.354007   0.000000
    11  C    3.621645   4.868583   3.837080   2.933006   5.342407
    12  C    3.893295   4.830073   3.945200   2.627796   6.032104
    13  C    4.806547   5.962025   5.269723   3.733618   6.221762
    14  C    4.231473   5.645553   3.967220   4.215236   5.781993
    15  C    3.630629   4.875709   3.855816   5.343674   2.930738
    16  C    4.730070   6.103796   4.899062   5.998471   4.341292
    17  C    4.425334   5.352902   4.879261   6.231358   2.821780
    18  C    3.801496   5.009424   3.435187   5.812868   3.426272
    19  H    2.165633   1.112999   2.725608   2.588869   3.821862
    20  H    2.164885   1.113001   2.724649   3.821991   2.586096
    21  H    2.165142   1.113000   3.456315   2.755072   2.758135
    22  H    2.165633   3.231383   1.113000   4.238095   3.165864
    23  H    2.164884   3.231113   1.112999   3.169907   4.234817
    24  H    2.165142   2.433068   1.113001   3.796955   3.792978
    25  H    3.453540   4.329087   3.177621   2.658564   5.746892
    26  H    4.973243   5.913596   4.872467   3.681415   7.099797
    27  H    3.964436   4.627873   4.345215   2.065954   6.072049
    28  H    5.067792   6.315933   5.588261   4.387149   6.086905
    29  H    5.716310   6.869028   5.995256   4.537131   7.261580
    30  H    4.864136   5.799150   5.575219   3.361682   6.260448
    31  H    4.612612   5.926725   4.048932   4.532169   6.410283
    32  H    3.776879   5.273700   3.414578   4.380478   5.039208
    33  H    5.204073   6.637380   5.031185   5.067725   6.541411
    34  H    4.665507   6.145267   4.641147   5.704771   4.834861
    35  H    5.654775   6.994232   5.678398   7.072946   5.046237
    36  H    5.050274   6.352148   5.504687   6.017757   4.539537
    37  H    4.115410   4.782275   4.604891   6.121723   2.128746
    38  H    5.402521   6.349705   5.661328   7.271450   3.818767
    39  H    4.766133   5.634649   5.487077   6.249865   3.118633
    40  H    4.618605   5.927508   4.065000   6.427448   4.507138
    41  H    3.011555   4.204440   2.380284   5.088745   3.203109
    42  H    4.392130   5.370885   4.047233   6.587379   3.515338
                   11         12         13         14         15
    11  C    0.000000
    12  C    1.523000   0.000000
    13  C    1.523001   2.486598   0.000000
    14  C    1.523000   2.486905   2.487797   0.000000
    15  C    4.582627   5.780392   5.321148   4.345522   0.000000
    16  C    4.513945   5.914299   4.938342   4.041178   1.523000
    17  C    5.902806   7.085220   6.506889   5.823290   1.523000
    18  C    5.040662   6.022087   6.067923   4.499990   1.523000
    19  H    4.967777   4.581504   6.108572   5.796096   5.753684
    20  H    5.743773   5.769702   6.901886   6.334464   4.976174
    21  H    5.156250   5.204928   6.015929   6.124771   5.157608
    22  H    4.259904   4.660168   5.647450   4.071599   3.157728
    23  H    3.133421   3.066821   4.642365   3.166898   4.277548
    24  H    4.773552   4.612788   6.219488   4.943056   4.793050
    25  H    2.165634   1.113000   3.455981   2.724696   5.669442
    26  H    2.164885   1.113000   2.724026   2.724101   6.599783
    27  H    2.165142   1.112999   2.724025   3.455893   6.246540
    28  H    2.165634   3.455981   1.113000   2.726106   4.828641
    29  H    2.164885   2.724026   1.112999   2.724915   6.201626
    30  H    2.165142   2.724025   1.113000   3.456536   5.824285
    31  H    2.165634   2.432907   3.231594   1.113000   5.144504
    32  H    2.164885   3.230065   3.231432   1.113001   3.363095
    33  H    2.165142   3.230525   2.433534   1.113000   4.768380
    34  H    3.784945   5.174893   4.266326   3.068290   2.165634
    35  H    5.526683   6.911049   5.939196   4.871681   2.164885
    36  H    4.605659   6.078663   4.714769   4.403508   2.165143
    37  H    6.274833   7.289214   7.020173   6.312708   2.165633
    38  H    6.708789   7.935996   7.295322   6.427150   2.164884
    39  H    5.972916   7.222712   6.338511   6.079956   2.165142
    40  H    5.161909   6.192354   6.135198   4.312334   2.165634
    41  H    4.581307   5.335920   5.803197   4.137076   2.164885
    42  H    6.100698   7.033455   7.124740   5.607415   2.165142
                   16         17         18         19         20
    16  C    0.000000
    17  C    2.486598   0.000000
    18  C    2.486904   2.487797   0.000000
    19  H    6.895511   6.374461   5.769838   0.000000
    20  H    6.354727   5.266724   4.907747   1.817191   0.000000
    21  H    6.334444   5.443193   5.576092   1.817416   1.818068
    22  H    4.256702   4.183199   2.434274   3.689149   3.209490
    23  H    5.026261   5.511650   3.888092   3.210621   3.688287
    24  H    5.934246   5.660270   4.222604   2.404862   2.404129
    25  H    6.010239   6.985636   5.656923   3.977374   5.162760
    26  H    6.549706   7.968355   6.785632   5.597884   6.834706
    27  H    6.480405   7.412144   6.640302   4.304919   5.668494
    28  H    4.217268   5.932087   5.741097   6.639454   7.175832
    29  H    5.684164   7.458953   6.826331   6.903368   7.813834
    30  H    5.604171   6.861575   6.681888   5.903601   6.817230
    31  H    4.957279   6.649953   5.021323   5.898336   6.585283
    32  H    3.169278   4.874797   3.399982   5.585090   5.811854
    33  H    4.102491   6.202820   5.061207   6.835338   7.338377
    34  H    1.113000   3.455981   2.724697   6.791353   6.502603
    35  H    1.113000   2.724026   2.724100   7.811322   7.124017
    36  H    1.113000   2.724025   3.455894   7.174267   6.703521
    37  H    3.455981   1.113000   2.726107   5.843933   4.515831
    38  H    2.724026   1.113000   2.724915   7.355558   6.173390
    39  H    2.724026   1.112999   3.456536   6.675147   5.682985
    40  H    2.432907   3.231594   1.112999   6.593902   5.891869
    41  H    3.230064   3.231431   1.113001   4.849168   4.121901
    42  H    3.230525   2.433535   1.113000   6.198759   5.046862
                   21         22         23         24         25
    21  H    0.000000
    22  H    4.126383   0.000000
    23  H    4.125774   1.817191   0.000000
    24  H    3.536290   1.817416   1.818068   0.000000
    25  H    4.913085   3.967433   2.212844   3.705099   0.000000
    26  H    6.305036   5.523389   3.888035   5.502896   1.817192
    27  H    4.812952   5.188622   3.648425   4.912400   1.817417
    28  H    6.316138   5.775753   5.091713   6.622688   4.305094
    29  H    6.989364   6.378219   5.221090   6.905180   3.742248
    30  H    5.679986   6.090620   5.045193   6.444480   3.742356
    31  H    6.538468   4.238768   3.061960   4.866134   2.404203
    32  H    5.811546   3.259593   2.832557   4.453498   3.208804
    33  H    7.028766   5.040117   4.272100   6.033093   3.688125
    34  H    6.479761   4.085297   4.528402   5.715375   5.293494
    35  H    7.265071   4.888287   5.842697   6.655966   6.955858
    36  H    6.395474   5.013662   5.625466   6.559951   6.346866
    37  H    4.879952   3.951659   5.418680   5.212078   7.068770
    38  H    6.502859   4.824433   6.265042   6.412963   7.813883
    39  H    5.514345   4.951425   6.062962   6.313252   7.277055
    40  H    6.535166   3.074504   4.266384   4.879894   5.863881
    41  H    4.922070   1.335091   2.880350   3.137022   4.824055
    42  H    5.919114   2.999343   4.683793   4.635585   6.606689
                   26         27         28         29         30
    26  H    0.000000
    27  H    1.818067   0.000000
    28  H    3.742247   3.742355   0.000000
    29  H    2.485946   3.079820   1.817192   0.000000
    30  H    3.079820   2.485944   1.817416   1.818068   0.000000
    31  H    2.404021   3.536179   3.689574   3.209718   4.126444
    32  H    3.687355   4.124959   3.211185   3.688552   4.126029
    33  H    3.208562   4.125705   2.405563   2.404547   3.536726
    34  H    5.691769   5.867757   3.629029   4.880624   5.084767
    35  H    7.489582   7.536619   5.173229   6.603678   6.656979
    36  H    6.718303   6.507130   3.846531   5.515284   5.255998
    37  H    8.249516   7.539308   6.580445   8.012846   7.279585
    38  H    8.756967   8.351136   6.645453   8.180997   7.745046
    39  H    8.107171   7.435292   5.674112   7.330656   6.579961
    40  H    6.805981   6.948856   5.758926   6.754034   6.897985
    41  H    6.136906   5.946481   5.681824   6.547160   6.369013
    42  H    7.834144   7.599156   6.773916   7.916179   7.683702
                   31         32         33         34         35
    31  H    0.000000
    32  H    1.817192   0.000000
    33  H    1.817417   1.818069   0.000000
    34  H    3.957897   2.238067   3.064657   0.000000
    35  H    5.704315   3.960718   4.838193   1.817192   0.000000
    36  H    5.435725   3.731165   4.334204   1.817416   1.818068
    37  H    7.048447   5.362972   6.845854   4.305094   3.742247
    38  H    7.223663   5.422454   6.711704   3.742248   2.485946
    39  H    7.013502   5.257121   6.358002   3.742356   3.079821
    40  H    4.771458   3.209626   4.716793   2.404203   2.404020
    41  H    4.498980   3.105028   4.903309   3.208804   3.687355
    42  H    6.092981   4.508518   6.169786   3.688125   3.208562
                   36         37         38         39         40
    36  H    0.000000
    37  H    3.742356   0.000000
    38  H    3.079821   1.817192   0.000000
    39  H    2.485946   1.817415   1.818068   0.000000
    40  H    3.536179   3.689574   3.209717   4.126443   0.000000
    41  H    4.124959   3.211186   3.688551   4.126029   1.817192
    42  H    4.125706   2.405564   2.404547   3.536726   1.817416
                   41         42
    41  H    0.000000
    42  H    1.818068   0.000000
 Stoichiometry    C14H24N2O2
 Framework group  C1[X(C14H24N2O2)]
 Deg. of freedom   120
 Full point group                 C1      NOp   1
 Largest Abelian subgroup         C1      NOp   1
 Largest concise Abelian subgroup C1      NOp   1
                         Standard orientation:                         
 ---------------------------------------------------------------------
 Center     Atomic      Atomic             Coordinates (Angstroms)
 Number     Number       Type             X           Y           Z
 ---------------------------------------------------------------------
      1          6           0        1.234976    1.105512   -0.386972
      2          7           0        1.182915   -0.261233   -0.445769
      3          6           0       -0.003119   -0.882922   -1.001940
      4          7           0       -1.185339   -0.256650   -0.442798
      5          6           0       -1.229145    1.113811   -0.374293
      6          6           0        0.008131    1.740920    0.219815
      7          6           0        0.011639    3.234843   -0.076345
      8          6           0        0.015146    1.521387    1.726893
      9          8           0        2.178782    1.745705   -0.785280
     10          8           0       -2.175101    1.760853   -0.756089
     11          6           0        2.287208   -1.067731    0.036513
     12          6           0        3.389722   -0.157888    0.562039
     13          6           0        2.831467   -1.916497   -1.104938
     14          6           0        1.800567   -1.975464    1.158444
     15          6           0       -2.295409   -1.059122    0.032896
     16          6           0       -1.976780   -2.535322   -0.164176
     17          6           0       -3.551385   -0.702531   -0.751258
     18          6           0       -2.523905   -0.782521    1.513035
     19          1           0        0.923938    3.698261    0.361514
     20          1           0       -0.893219    3.703398    0.371381
     21          1           0        0.006760    3.394541   -1.177817
     22          1           0       -0.893900    0.951862    2.023615
     23          1           0        0.923248    0.945006    2.013082
     24          1           0        0.021214    2.506377    2.245091
     25          1           0        2.992990    0.462878    1.396320
     26          1           0        4.236799   -0.777883    0.931951
     27          1           0        3.744910    0.505922   -0.257695
     28          1           0        2.026474   -2.581834   -1.489750
     29          1           0        3.678691   -2.536031   -0.734590
     30          1           0        3.186802   -1.252224   -1.924236
     31          1           0        2.368912   -1.753115    2.089205
     32          1           0        0.716191   -1.797399    1.335056
     33          1           0        1.960884   -3.038719    0.871116
     34          1           0       -1.058999   -2.796985    0.408518
     35          1           0       -2.829411   -3.150348    0.201247
     36          1           0       -1.809162   -2.737334   -1.245779
     37          1           0       -3.785141    0.376161   -0.607907
     38          1           0       -4.403603   -1.318037   -0.385680
     39          1           0       -3.383354   -0.905023   -1.832706
     40          1           0       -2.402470   -1.726258    2.090428
     41          1           0       -1.782250   -0.032652    1.868585
     42          1           0       -3.553468   -0.386708    1.661696
 ---------------------------------------------------------------------
 Rotational constants (GHZ):      0.6014000      0.4022878      0.2953958
 Leave Link  202 at Tue Jun  8 10:23:53 2021, MaxMem=  3355443200 cpu:         0.0
 (Enter /usr/local/gqt/g09/l301.exe)
 Standard basis: 6-311+G(d,p) (5D, 7F)
 Ernie: Thresh=  0.10000D-02 Tol=  0.10000D-05 Strict=F.
 There are   558 symmetry adapted cartesian basis functions of A   symmetry.
 There are   540 symmetry adapted basis functions of A   symmetry.
   540 basis functions,   840 primitive gaussians,   558 cartesian basis functions
    69 alpha electrons       69 beta electrons
       nuclear repulsion energy      1535.9418749813 Hartrees.
 IExCor= 5547 DFT=T Ex+Corr=N12SX ExCW=0 ScaHFX=  0.250000
 ScaDFX=  1.000000  1.000000  1.000000  1.000000 ScalE2=  1.000000  1.000000
 IRadAn=      0 IRanWt=     -1 IRanGd=            0 ICorTp=0 IEmpDi=  4
  HFx wShort=  0.110000 wLong=  0.000000 cFull=  0.000000 cShort=  1.000000 cLong=  0.000000
  DFx wShort=  0.110000 wLong=  0.000000 cFull=  0.000000 cShort=  1.000000 cLong=  0.000000
 NAtoms=   42 NActive=   42 NUniq=   42 SFac= 1.00D+00 NAtFMM=   60 NAOKFM=F Big=F
 Integral buffers will be    131072 words long.
 Raffenetti 2 integral format.
 Two-electron integral symmetry is turned on.
 ------------------------------------------------------------------------------
 Polarizable Continuum Model (PCM)
 =================================
 Model                : PCM (using non-symmetric T matrix).
 Atomic radii         : UFF (Universal Force Field).
 Polarization charges : Total charges.
 Charge compensation  : None.
 Solution method      : On-the-fly selection.
 Cavity type          : Scaled VdW (van der Waals Surface) (Alpha=1.100).
 Cavity algorithm     : GePol (No added spheres)
                        Default sphere list used, NSphG=   42.
                        Lebedev-Laikov grids with approx.  5.0 points / Ang**2.
                        Smoothing algorithm: Karplus/York (Gamma=1.0000).
                        Polarization charges: spherical gaussians, with
                                              point-specific exponents (IZeta= 3).
                        Self-potential: point-specific (ISelfS= 7).
                        Self-field    : sphere-specific E.n sum rule (ISelfD= 2).
 1st derivatives      : Analytical E(r).r(x)/FMM algorithm (CHGder, D1EAlg=3).
                        Cavity 1st derivative terms included.
 Solvent              : Water, Eps=  78.355300 Eps(inf)=   1.777849
 ------------------------------------------------------------------------------
 GePol: Number of generator spheres                  =      42
 GePol: Total number of spheres                      =      42
 GePol: Number of exposed spheres                    =      41 ( 97.62%)
 GePol: Number of points                             =    2451
 GePol: Average weight of points                     =       0.13
 GePol: Minimum weight of points                     =   0.63D-11
 GePol: Maximum weight of points                     =    0.20577
 GePol: Number of points with low weight             =     172
 GePol: Fraction of low-weight points (<1% of avg)   =       7.02%
 GePol: Cavity surface area                          =    324.456 Ang**2
 GePol: Cavity volume                                =    379.739 Ang**3
 Leave Link  301 at Tue Jun  8 10:23:53 2021, MaxMem=  3355443200 cpu:         0.8
 (Enter /usr/local/gqt/g09/l302.exe)
 NPDir=0 NMtPBC=     1 NCelOv=     1 NCel=       1 NClECP=     1 NCelD=      1
         NCelK=      1 NCelE2=     1 NClLst=     1 CellRange=     0.0.
 One-electron integrals computed using PRISM.
 NBasis=   540 RedAO= T EigKep=  3.34D-06  NBF=   540
 NBsUse=   540 1.00D-06 EigRej= -1.00D+00 NBFU=   540
 Precomputing XC quadrature grid using
 IXCGrd= 4 IRadAn=           0 IRanWt=          -1 IRanGd=           0 AccXCQ= 0.00D+00.
 Generated NRdTot=       0 NPtTot=           0 NUsed=           0 NTot=          32
 NSgBfM=   558   558   558   558   558 MxSgAt=    42 MxSgA2=    42.
 Leave Link  302 at Tue Jun  8 10:23:54 2021, MaxMem=  3355443200 cpu:        13.2
 (Enter /usr/local/gqt/g09/l303.exe)
 DipDrv:  MaxL=1.
 Leave Link  303 at Tue Jun  8 10:23:54 2021, MaxMem=  3355443200 cpu:         1.3
 (Enter /usr/local/gqt/g09/l401.exe)
 ExpMin= 4.38D-02 ExpMax= 8.59D+03 ExpMxC= 1.30D+03 IAcc=2 IRadAn=         4 AccDes= 0.00D+00
 Harris functional with IExCor= 5547 and IRadAn=       4 diagonalized for initial guess.
 HarFok:  IExCor= 5547 AccDes= 0.00D+00 IRadAn=         4 IDoV= 1 UseB2=F ITyADJ=14
 ICtDFT=  3500011 ScaDFX=  1.000000  1.000000  1.000000  1.000000
 FoFCou: FMM=F IPFlag=           0 FMFlag=      100000 FMFlg1=           0
         NFxFlg=           0 DoJE=T BraDBF=F KetDBF=T FulRan=T
         wScrn=  0.000000 ICntrl=     500 IOpCl=  0 I1Cent=   200000004 NGrid=           0
         NMat0=    1 NMatS0=      1 NMatT0=    0 NMatD0=    1 NMtDS0=    0 NMtDT0=    0
 Petite list used in FoFCou.
 Harris En= -782.498517195555    
 JPrj=0 DoOrth=F DoCkMO=F.
 Leave Link  401 at Tue Jun  8 10:23:57 2021, MaxMem=  3355443200 cpu:        49.3
 (Enter /usr/local/gqt/g09/l502.exe)
 Closed shell SCF:
 Using DIIS extrapolation, IDIIS=  1040.
 Integral symmetry usage will be decided dynamically.
 IVT=      965746 IEndB=      965746 NGot=  3355443200 MDV=  3354806017
 LenX=  3354806017 LenY=  3354494095
 Requested convergence on RMS density matrix=1.00D-08 within 128 cycles.
 Requested convergence on MAX density matrix=1.00D-06.
 Requested convergence on             energy=1.00D-06.
 No special actions if energy rises.
 Fock matrices will be formed incrementally for  20 cycles.

 Cycle   1  Pass 1  IDiag  1:
 FoFJK:  IHMeth= 1 ICntrl=       0 DoSepK=T KAlg= 0 I1Cent=   0 FoldK=F
 IRaf=         1 NMat=   1 IRICut=       1 DoRegI=T DoRafI=F ISym2E= 0.
 FoFCou: FMM=F IPFlag=           0 FMFlag=      100000 FMFlg1=           0
         NFxFlg=           0 DoJE=T BraDBF=F KetDBF=F FulRan=T
         wScrn=  0.000000 ICntrl=     500 IOpCl=  0 I1Cent=           0 NGrid=           0
         NMat0=    1 NMatS0=      1 NMatT0=    0 NMatD0=    1 NMtDS0=    0 NMtDT0=    0
 Symmetry not used in FoFCou.
 Inv3:  Mode=1 IEnd=    18022203.
 Iteration    1 A*A^-1 deviation from unit magnitude is 5.55D-15 for   2444.
 Iteration    1 A*A^-1 deviation from orthogonality  is 3.44D-15 for   2451   1705.
 Iteration    1 A^-1*A deviation from unit magnitude is 6.66D-15 for   2444.
 Iteration    1 A^-1*A deviation from orthogonality  is 4.97D-12 for   1786   1766.
 E= -807.254094479196    
 DIIS: error= 6.18D-02 at cycle   1 NSaved=   1.
 NSaved= 1 IEnMin= 1 EnMin= -807.254094479196     IErMin= 1 ErrMin= 6.18D-02
 ErrMax= 6.18D-02  0.00D+00 EMaxC= 1.00D-01 BMatC= 2.00D+00 BMatP= 2.00D+00
 IDIUse=3 WtCom= 3.82D-01 WtEn= 6.18D-01
 Coeff-Com:  0.100D+01
 Coeff-En:   0.100D+01
 Coeff:      0.100D+01
 Gap=     0.137 Goal=   None    Shift=    0.000
 GapD=    0.137 DampG=1.000 DampE=0.500 DampFc=0.5000 IDamp=-1.
 Damping current iteration by 5.00D-01
 RMSDP=1.09D-02 MaxDP=1.63D+00              OVMax= 1.23D-01

 Cycle   2  Pass 1  IDiag  1:
 RMSU=  4.80D-03    CP:  9.11D-01
 E= -807.394512109366     Delta-E=       -0.140417630170 Rises=F Damp=T
 DIIS: error= 2.77D-02 at cycle   2 NSaved=   2.
 NSaved= 2 IEnMin= 2 EnMin= -807.394512109366     IErMin= 2 ErrMin= 2.77D-02
 ErrMax= 2.77D-02  0.00D+00 EMaxC= 1.00D-01 BMatC= 4.09D-01 BMatP= 2.00D+00
 IDIUse=3 WtCom= 7.23D-01 WtEn= 2.77D-01
 Coeff-Com: -0.518D+00 0.152D+01
 Coeff-En:   0.378D-01 0.962D+00
 Coeff:     -0.364D+00 0.136D+01
 Gap=     0.274 Goal=   None    Shift=    0.000
 RMSDP=8.27D-03 MaxDP=1.58D+00 DE=-1.40D-01 OVMax= 1.74D-01

 Cycle   3  Pass 1  IDiag  1:
 RMSU=  5.13D-03    CP:  7.20D-01  2.78D-01
 E= -807.385559268913     Delta-E=        0.008952840453 Rises=F Damp=F
 DIIS: error= 1.59D-02 at cycle   3 NSaved=   3.
 NSaved= 3 IEnMin= 2 EnMin= -807.394512109366     IErMin= 3 ErrMin= 1.59D-02
 ErrMax= 1.59D-02  0.00D+00 EMaxC= 1.00D-01 BMatC= 2.26D-01 BMatP= 4.09D-01
 IDIUse=3 WtCom= 8.41D-01 WtEn= 1.59D-01
 Coeff-Com: -0.378D+00 0.864D+00 0.514D+00
 Coeff-En:   0.000D+00 0.523D+00 0.477D+00
 Coeff:     -0.317D+00 0.810D+00 0.508D+00
 Gap=     0.181 Goal=   None    Shift=    0.000
 RMSDP=5.01D-03 MaxDP=5.01D-01 DE= 8.95D-03 OVMax= 1.14D-01

 Cycle   4  Pass 1  IDiag  1:
 RMSU=  1.76D-03    CP:  7.84D-01  9.74D-01  4.66D-01
 E= -807.561270078946     Delta-E=       -0.175710810034 Rises=F Damp=F
 DIIS: error= 8.59D-03 at cycle   4 NSaved=   4.
 NSaved= 4 IEnMin= 4 EnMin= -807.561270078946     IErMin= 4 ErrMin= 8.59D-03
 ErrMax= 8.59D-03  0.00D+00 EMaxC= 1.00D-01 BMatC= 3.44D-02 BMatP= 2.26D-01
 IDIUse=3 WtCom= 9.14D-01 WtEn= 8.59D-02
 Coeff-Com: -0.218D+00 0.485D+00 0.360D+00 0.372D+00
 Coeff-En:   0.000D+00 0.000D+00 0.684D-01 0.932D+00
 Coeff:     -0.199D+00 0.443D+00 0.335D+00 0.420D+00
 Gap=     0.147 Goal=   None    Shift=    0.000
 RMSDP=1.81D-03 MaxDP=3.27D-01 DE=-1.76D-01 OVMax= 3.45D-02

 Cycle   5  Pass 1  IDiag  1:
 RMSU=  7.22D-04    CP:  7.43D-01  8.93D-01  6.28D-01  5.84D-01
 E= -807.584893301018     Delta-E=       -0.023623222072 Rises=F Damp=F
 DIIS: error= 2.05D-03 at cycle   5 NSaved=   5.
 NSaved= 5 IEnMin= 5 EnMin= -807.584893301018     IErMin= 5 ErrMin= 2.05D-03
 ErrMax= 2.05D-03  0.00D+00 EMaxC= 1.00D-01 BMatC= 2.18D-03 BMatP= 3.44D-02
 IDIUse=3 WtCom= 9.79D-01 WtEn= 2.05D-02
 Coeff-Com: -0.714D-01 0.158D+00 0.128D+00 0.250D+00 0.536D+00
 Coeff-En:   0.000D+00 0.000D+00 0.000D+00 0.483D-01 0.952D+00
 Coeff:     -0.699D-01 0.154D+00 0.125D+00 0.246D+00 0.545D+00
 Gap=     0.145 Goal=   None    Shift=    0.000
 RMSDP=4.54D-04 MaxDP=7.29D-02 DE=-2.36D-02 OVMax= 7.93D-03

 Cycle   6  Pass 1  IDiag  1:
 RMSU=  1.75D-04    CP:  7.53D-01  9.22D-01  6.03D-01  6.48D-01  7.33D-01
 E= -807.586350502986     Delta-E=       -0.001457201968 Rises=F Damp=F
 DIIS: error= 4.80D-04 at cycle   6 NSaved=   6.
 NSaved= 6 IEnMin= 6 EnMin= -807.586350502986     IErMin= 6 ErrMin= 4.80D-04
 ErrMax= 4.80D-04  0.00D+00 EMaxC= 1.00D-01 BMatC= 1.86D-04 BMatP= 2.18D-03
 IDIUse=3 WtCom= 9.95D-01 WtEn= 4.80D-03
 Coeff-Com: -0.445D-03-0.110D-03 0.639D-02 0.721D-01 0.334D+00 0.588D+00
 Coeff-En:   0.000D+00 0.000D+00 0.000D+00 0.000D+00 0.522D-01 0.948D+00
 Coeff:     -0.443D-03-0.109D-03 0.636D-02 0.718D-01 0.332D+00 0.590D+00
 Gap=     0.145 Goal=   None    Shift=    0.000
 RMSDP=1.15D-04 MaxDP=2.12D-02 DE=-1.46D-03 OVMax= 2.71D-03

 Cycle   7  Pass 1  IDiag  1:
 RMSU=  7.21D-05    CP:  7.52D-01  9.14D-01  6.10D-01  6.54D-01  7.75D-01
                    CP:  7.56D-01
 E= -807.586494644995     Delta-E=       -0.000144142009 Rises=F Damp=F
 DIIS: error= 9.39D-05 at cycle   7 NSaved=   7.
 NSaved= 7 IEnMin= 7 EnMin= -807.586494644995     IErMin= 7 ErrMin= 9.39D-05
 ErrMax= 9.39D-05  0.00D+00 EMaxC= 1.00D-01 BMatC= 8.41D-06 BMatP= 1.86D-04
 IDIUse=1 WtCom= 1.00D+00 WtEn= 0.00D+00
 Coeff-Com:  0.363D-02-0.834D-02-0.324D-02 0.241D-01 0.146D+00 0.308D+00
 Coeff-Com:  0.530D+00
 Coeff:      0.363D-02-0.834D-02-0.324D-02 0.241D-01 0.146D+00 0.308D+00
 Coeff:      0.530D+00
 Gap=     0.145 Goal=   None    Shift=    0.000
 RMSDP=3.86D-05 MaxDP=6.75D-03 DE=-1.44D-04 OVMax= 1.03D-03

 Cycle   8  Pass 1  IDiag  1:
 RMSU=  2.54D-05    CP:  7.51D-01  9.14D-01  6.09D-01  6.53D-01  7.83D-01
                    CP:  7.76D-01  7.88D-01
 E= -807.586501651874     Delta-E=       -0.000007006880 Rises=F Damp=F
 DIIS: error= 2.76D-05 at cycle   8 NSaved=   8.
 NSaved= 8 IEnMin= 8 EnMin= -807.586501651874     IErMin= 8 ErrMin= 2.76D-05
 ErrMax= 2.76D-05  0.00D+00 EMaxC= 1.00D-01 BMatC= 8.12D-07 BMatP= 8.41D-06
 IDIUse=1 WtCom= 1.00D+00 WtEn= 0.00D+00
 Coeff-Com:  0.164D-02-0.365D-02-0.191D-02 0.449D-02 0.373D-01 0.943D-01
 Coeff-Com:  0.284D+00 0.584D+00
 Coeff:      0.164D-02-0.365D-02-0.191D-02 0.449D-02 0.373D-01 0.943D-01
 Coeff:      0.284D+00 0.584D+00
 Gap=     0.145 Goal=   None    Shift=    0.000
 RMSDP=1.33D-05 MaxDP=2.56D-03 DE=-7.01D-06 OVMax= 3.21D-04

 Cycle   9  Pass 1  IDiag  1:
 RMSU=  7.68D-06    CP:  7.51D-01  9.14D-01  6.09D-01  6.54D-01  7.82D-01
                    CP:  7.74D-01  8.56D-01  7.95D-01
 E= -807.586502346106     Delta-E=       -0.000000694231 Rises=F Damp=F
 DIIS: error= 1.15D-05 at cycle   9 NSaved=   9.
 NSaved= 9 IEnMin= 9 EnMin= -807.586502346106     IErMin= 9 ErrMin= 1.15D-05
 ErrMax= 1.15D-05  0.00D+00 EMaxC= 1.00D-01 BMatC= 1.28D-07 BMatP= 8.12D-07
 IDIUse=1 WtCom= 1.00D+00 WtEn= 0.00D+00
 Coeff-Com:  0.462D-03-0.101D-02-0.595D-03-0.112D-03 0.481D-02 0.202D-01
 Coeff-Com:  0.103D+00 0.342D+00 0.531D+00
 Coeff:      0.462D-03-0.101D-02-0.595D-03-0.112D-03 0.481D-02 0.202D-01
 Coeff:      0.103D+00 0.342D+00 0.531D+00
 Gap=     0.145 Goal=   None    Shift=    0.000
 RMSDP=3.43D-06 MaxDP=3.39D-04 DE=-6.94D-07 OVMax= 1.58D-04

 Cycle  10  Pass 1  IDiag  1:
 RMSU=  2.24D-06    CP:  7.51D-01  9.14D-01  6.09D-01  6.54D-01  7.82D-01
                    CP:  7.77D-01  8.61D-01  8.32D-01  7.27D-01
 E= -807.586502448276     Delta-E=       -0.000000102170 Rises=F Damp=F
 DIIS: error= 6.20D-06 at cycle  10 NSaved=  10.
 NSaved=10 IEnMin=10 EnMin= -807.586502448276     IErMin=10 ErrMin= 6.20D-06
 ErrMax= 6.20D-06  0.00D+00 EMaxC= 1.00D-01 BMatC= 2.28D-08 BMatP= 1.28D-07
 IDIUse=1 WtCom= 1.00D+00 WtEn= 0.00D+00
 Coeff-Com:  0.544D-04-0.107D-03-0.851D-04-0.744D-03-0.222D-02 0.199D-03
 Coeff-Com:  0.255D-01 0.138D+00 0.338D+00 0.501D+00
 Coeff:      0.544D-04-0.107D-03-0.851D-04-0.744D-03-0.222D-02 0.199D-03
 Coeff:      0.255D-01 0.138D+00 0.338D+00 0.501D+00
 Gap=     0.145 Goal=   None    Shift=    0.000
 RMSDP=1.28D-06 MaxDP=1.05D-04 DE=-1.02D-07 OVMax= 5.53D-05

 Cycle  11  Pass 1  IDiag  1:
 RMSU=  8.89D-07    CP:  7.51D-01  9.14D-01  6.09D-01  6.54D-01  7.82D-01
                    CP:  7.78D-01  8.61D-01  8.34D-01  7.22D-01  6.57D-01
 E= -807.586502466111     Delta-E=       -0.000000017834 Rises=F Damp=F
 DIIS: error= 1.68D-06 at cycle  11 NSaved=  11.
 NSaved=11 IEnMin=11 EnMin= -807.586502466111     IErMin=11 ErrMin= 1.68D-06
 ErrMax= 1.68D-06  0.00D+00 EMaxC= 1.00D-01 BMatC= 2.19D-09 BMatP= 2.28D-08
 IDIUse=1 WtCom= 1.00D+00 WtEn= 0.00D+00
 Coeff-Com: -0.103D-04 0.296D-04 0.416D-05-0.471D-03-0.183D-02-0.168D-02
 Coeff-Com:  0.435D-02 0.480D-01 0.145D+00 0.294D+00 0.513D+00
 Coeff:     -0.103D-04 0.296D-04 0.416D-05-0.471D-03-0.183D-02-0.168D-02
 Coeff:      0.435D-02 0.480D-01 0.145D+00 0.294D+00 0.513D+00
 Gap=     0.145 Goal=   None    Shift=    0.000
 RMSDP=4.90D-07 MaxDP=7.64D-05 DE=-1.78D-08 OVMax= 1.32D-05

 Cycle  12  Pass 1  IDiag  1:
 RMSU=  3.08D-07    CP:  7.51D-01  9.14D-01  6.09D-01  6.54D-01  7.82D-01
                    CP:  7.79D-01  8.63D-01  8.31D-01  7.33D-01  6.62D-01
                    CP:  7.60D-01
 E= -807.586502467837     Delta-E=       -0.000000001726 Rises=F Damp=F
 DIIS: error= 5.17D-07 at cycle  12 NSaved=  12.
 NSaved=12 IEnMin=12 EnMin= -807.586502467837     IErMin=12 ErrMin= 5.17D-07
 ErrMax= 5.17D-07  0.00D+00 EMaxC= 1.00D-01 BMatC= 2.40D-10 BMatP= 2.19D-09
 IDIUse=1 WtCom= 1.00D+00 WtEn= 0.00D+00
 Coeff-Com: -0.120D-04 0.276D-04 0.128D-04-0.164D-03-0.697D-03-0.869D-03
 Coeff-Com: -0.187D-02 0.577D-02 0.266D-01 0.830D-01 0.276D+00 0.612D+00
 Coeff:     -0.120D-04 0.276D-04 0.128D-04-0.164D-03-0.697D-03-0.869D-03
 Coeff:     -0.187D-02 0.577D-02 0.266D-01 0.830D-01 0.276D+00 0.612D+00
 Gap=     0.145 Goal=   None    Shift=    0.000
 RMSDP=1.54D-07 MaxDP=1.38D-05 DE=-1.73D-09 OVMax= 6.26D-06

 Cycle  13  Pass 1  IDiag  1:
 RMSU=  1.06D-07    CP:  7.51D-01  9.14D-01  6.09D-01  6.54D-01  7.82D-01
                    CP:  7.79D-01  8.63D-01  8.33D-01  7.37D-01  6.68D-01
                    CP:  7.53D-01  7.51D-01
 E= -807.586502468122     Delta-E=       -0.000000000286 Rises=F Damp=F
 DIIS: error= 1.73D-07 at cycle  13 NSaved=  13.
 NSaved=13 IEnMin=13 EnMin= -807.586502468122     IErMin=13 ErrMin= 1.73D-07
 ErrMax= 1.73D-07  0.00D+00 EMaxC= 1.00D-01 BMatC= 2.84D-11 BMatP= 2.40D-10
 IDIUse=1 WtCom= 1.00D+00 WtEn= 0.00D+00
 Coeff-Com: -0.522D-05 0.111D-04 0.667D-05-0.350D-04-0.167D-03-0.260D-03
 Coeff-Com: -0.164D-02-0.253D-02-0.344D-02 0.801D-02 0.805D-01 0.320D+00
 Coeff-Com:  0.600D+00
 Coeff:     -0.522D-05 0.111D-04 0.667D-05-0.350D-04-0.167D-03-0.260D-03
 Coeff:     -0.164D-02-0.253D-02-0.344D-02 0.801D-02 0.805D-01 0.320D+00
 Coeff:      0.600D+00
 Gap=     0.145 Goal=   None    Shift=    0.000
 RMSDP=5.47D-08 MaxDP=6.64D-06 DE=-2.86D-10 OVMax= 1.85D-06

 Cycle  14  Pass 1  IDiag  1:
 RMSU=  3.50D-08    CP:  7.51D-01  9.14D-01  6.09D-01  6.54D-01  7.82D-01
                    CP:  7.79D-01  8.63D-01  8.34D-01  7.37D-01  6.70D-01
                    CP:  7.68D-01  7.76D-01  8.21D-01
 E= -807.586502468109     Delta-E=        0.000000000013 Rises=F Damp=F
 DIIS: error= 6.17D-08 at cycle  14 NSaved=  14.
 NSaved=14 IEnMin=13 EnMin= -807.586502468122     IErMin=14 ErrMin= 6.17D-08
 ErrMax= 6.17D-08  0.00D+00 EMaxC= 1.00D-01 BMatC= 5.50D-12 BMatP= 2.84D-11
 IDIUse=1 WtCom= 1.00D+00 WtEn= 0.00D+00
 Coeff-Com: -0.204D-05 0.410D-05 0.300D-05-0.352D-05-0.266D-04-0.674D-04
 Coeff-Com: -0.815D-03-0.217D-02-0.534D-02-0.477D-02 0.174D-01 0.128D+00
 Coeff-Com:  0.374D+00 0.493D+00
 Coeff:     -0.204D-05 0.410D-05 0.300D-05-0.352D-05-0.266D-04-0.674D-04
 Coeff:     -0.815D-03-0.217D-02-0.534D-02-0.477D-02 0.174D-01 0.128D+00
 Coeff:      0.374D+00 0.493D+00
 Gap=     0.145 Goal=   None    Shift=    0.000
 RMSDP=2.26D-08 MaxDP=1.92D-06 DE= 1.32D-11 OVMax= 6.30D-07

 Cycle  15  Pass 1  IDiag  1:
 RMSU=  1.25D-08    CP:  7.51D-01  9.14D-01  6.09D-01  6.54D-01  7.82D-01
                    CP:  7.79D-01  8.63D-01  8.33D-01  7.37D-01  6.71D-01
                    CP:  7.73D-01  8.07D-01  8.16D-01  6.86D-01
 E= -807.586502468176     Delta-E=       -0.000000000067 Rises=F Damp=F
 DIIS: error= 1.39D-08 at cycle  15 NSaved=  15.
 NSaved=15 IEnMin=15 EnMin= -807.586502468176     IErMin=15 ErrMin= 1.39D-08
 ErrMax= 1.39D-08  0.00D+00 EMaxC= 1.00D-01 BMatC= 2.98D-13 BMatP= 5.50D-12
 IDIUse=1 WtCom= 1.00D+00 WtEn= 0.00D+00
 Coeff-Com: -0.239D-06 0.426D-06 0.545D-06 0.224D-05 0.719D-05-0.108D-05
 Coeff-Com: -0.175D-03-0.648D-03-0.210D-02-0.322D-02-0.142D-02 0.245D-01
 Coeff-Com:  0.114D+00 0.239D+00 0.630D+00
 Coeff:     -0.239D-06 0.426D-06 0.545D-06 0.224D-05 0.719D-05-0.108D-05
 Coeff:     -0.175D-03-0.648D-03-0.210D-02-0.322D-02-0.142D-02 0.245D-01
 Coeff:      0.114D+00 0.239D+00 0.630D+00
 Gap=     0.145 Goal=   None    Shift=    0.000
 RMSDP=5.50D-09 MaxDP=3.76D-07 DE=-6.73D-11 OVMax= 2.20D-07

 Error on total polarization charges =  0.01736
 SCF Done:  E(RN12SX) =  -807.586502468     A.U. after   15 cycles
            NFock= 15  Conv=0.55D-08     -V/T= 2.0062
 KE= 8.026350507142D+02 PE=-4.950599545803D+03 EE= 1.804436117639D+03
 Leave Link  502 at Tue Jun  8 10:32:58 2021, MaxMem=  3355443200 cpu:      8599.1
 (Enter /usr/local/gqt/g09/l601.exe)
 Copying SCF densities to generalized density rwf, IOpCl= 0 IROHF=0.

 **********************************************************************

            Population analysis using the SCF density.

 **********************************************************************

 Orbital symmetries:
       Occupied  (A) (A) (A) (A) (A) (A) (A) (A) (A) (A) (A) (A)
                 (A) (A) (A) (A) (A) (A) (A) (A) (A) (A) (A) (A)
                 (A) (A) (A) (A) (A) (A) (A) (A) (A) (A) (A) (A)
                 (A) (A) (A) (A) (A) (A) (A) (A) (A) (A) (A) (A)
                 (A) (A) (A) (A) (A) (A) (A) (A) (A) (A) (A) (A)
                 (A) (A) (A) (A) (A) (A) (A) (A) (A)
       Virtual   (A) (A) (A) (A) (A) (A) (A) (A) (A) (A) (A) (A)
                 (A) (A) (A) (A) (A) (A) (A) (A) (A) (A) (A) (A)
                 (A) (A) (A) (A) (A) (A) (A) (A) (A) (A) (A) (A)
                 (A) (A) (A) (A) (A) (A) (A) (A) (A) (A) (A) (A)
                 (A) (A) (A) (A) (A) (A) (A) (A) (A) (A) (A) (A)
                 (A) (A) (A) (A) (A) (A) (A) (A) (A) (A) (A) (A)
                 (A) (A) (A) (A) (A) (A) (A) (A) (A) (A) (A) (A)
                 (A) (A) (A) (A) (A) (A) (A) (A) (A) (A) (A) (A)
                 (A) (A) (A) (A) (A) (A) (A) (A) (A) (A) (A) (A)
                 (A) (A) (A) (A) (A) (A) (A) (A) (A) (A) (A) (A)
                 (A) (A) (A) (A) (A) (A) (A) (A) (A) (A) (A) (A)
                 (A) (A) (A) (A) (A) (A) (A) (A) (A) (A) (A) (A)
                 (A) (A) (A) (A) (A) (A) (A) (A) (A) (A) (A) (A)
                 (A) (A) (A) (A) (A) (A) (A) (A) (A) (A) (A) (A)
                 (A) (A) (A) (A) (A) (A) (A) (A) (A) (A) (A) (A)
                 (A) (A) (A) (A) (A) (A) (A) (A) (A) (A) (A) (A)
                 (A) (A) (A) (A) (A) (A) (A) (A) (A) (A) (A) (A)
                 (A) (A) (A) (A) (A) (A) (A) (A) (A) (A) (A) (A)
                 (A) (A) (A) (A) (A) (A) (A) (A) (A) (A) (A) (A)
                 (A) (A) (A) (A) (A) (A) (A) (A) (A) (A) (A) (A)
                 (A) (A) (A) (A) (A) (A) (A) (A) (A) (A) (A) (A)
                 (A) (A) (A) (A) (A) (A) (A) (A) (A) (A) (A) (A)
                 (A) (A) (A) (A) (A) (A) (A) (A) (A) (A) (A) (A)
                 (A) (A) (A) (A) (A) (A) (A) (A) (A) (A) (A) (A)
                 (A) (A) (A) (A) (A) (A) (A) (A) (A) (A) (A) (A)
                 (A) (A) (A) (A) (A) (A) (A) (A) (A) (A) (A) (A)
                 (A) (A) (A) (A) (A) (A) (A) (A) (A) (A) (A) (A)
                 (A) (A) (A) (A) (A) (A) (A) (A) (A) (A) (A) (A)
                 (A) (A) (A) (A) (A) (A) (A) (A) (A) (A) (A) (A)
                 (A) (A) (A) (A) (A) (A) (A) (A) (A) (A) (A) (A)
                 (A) (A) (A) (A) (A) (A) (A) (A) (A) (A) (A) (A)
                 (A) (A) (A) (A) (A) (A) (A) (A) (A) (A) (A) (A)
                 (A) (A) (A) (A) (A) (A) (A) (A) (A) (A) (A) (A)
                 (A) (A) (A) (A) (A) (A) (A) (A) (A) (A) (A) (A)
                 (A) (A) (A) (A) (A) (A) (A) (A) (A) (A) (A) (A)
                 (A) (A) (A) (A) (A) (A) (A) (A) (A) (A) (A) (A)
                 (A) (A) (A) (A) (A) (A) (A) (A) (A) (A) (A) (A)
                 (A) (A) (A) (A) (A) (A) (A) (A) (A) (A) (A) (A)
                 (A) (A) (A) (A) (A) (A) (A) (A) (A) (A) (A) (A)
                 (A) (A) (A)
 The electronic state is 1-A.
 Alpha  occ. eigenvalues --  -19.17661 -19.17288 -14.41816 -14.41428 -10.35469
 Alpha  occ. eigenvalues --  -10.35151 -10.32556 -10.28164 -10.28132 -10.26210
 Alpha  occ. eigenvalues --  -10.23620 -10.21962 -10.21869 -10.21743 -10.21737
 Alpha  occ. eigenvalues --  -10.21503 -10.21392 -10.20790  -1.08418  -1.07246
 Alpha  occ. eigenvalues --   -0.99187  -0.94416  -0.85204  -0.81659  -0.80126
 Alpha  occ. eigenvalues --   -0.71804  -0.70046  -0.69529  -0.68994  -0.68825
 Alpha  occ. eigenvalues --   -0.67813  -0.65336  -0.63345  -0.59025  -0.56115
 Alpha  occ. eigenvalues --   -0.54843  -0.50215  -0.49608  -0.48578  -0.47611
 Alpha  occ. eigenvalues --   -0.46657  -0.46103  -0.44761  -0.43907  -0.43710
 Alpha  occ. eigenvalues --   -0.43460  -0.41620  -0.40801  -0.40421  -0.40173
 Alpha  occ. eigenvalues --   -0.39318  -0.38803  -0.38738  -0.38028  -0.37288
 Alpha  occ. eigenvalues --   -0.36734  -0.36619  -0.35775  -0.35501  -0.35190
 Alpha  occ. eigenvalues --   -0.34318  -0.33770  -0.33192  -0.32661  -0.31964
 Alpha  occ. eigenvalues --   -0.29644  -0.27017  -0.24983  -0.23596
 Alpha virt. eigenvalues --   -0.09088  -0.04327  -0.02960  -0.00722   0.00277
 Alpha virt. eigenvalues --    0.00369   0.00731   0.02080   0.02291   0.02469
 Alpha virt. eigenvalues --    0.02605   0.02764   0.04371   0.04386   0.04729
 Alpha virt. eigenvalues --    0.04749   0.04999   0.05189   0.05371   0.06667
 Alpha virt. eigenvalues --    0.06821   0.06838   0.07099   0.07855   0.08127
 Alpha virt. eigenvalues --    0.08848   0.08958   0.09020   0.09398   0.09963
 Alpha virt. eigenvalues --    0.10229   0.10621   0.11321   0.11752   0.12180
 Alpha virt. eigenvalues --    0.12509   0.12689   0.13442   0.13769   0.14075
 Alpha virt. eigenvalues --    0.14250   0.14529   0.14801   0.15234   0.15694
 Alpha virt. eigenvalues --    0.15927   0.16150   0.16422   0.16821   0.16958
 Alpha virt. eigenvalues --    0.17377   0.17521   0.17795   0.17923   0.18090
 Alpha virt. eigenvalues --    0.18648   0.18725   0.19481   0.19736   0.19931
 Alpha virt. eigenvalues --    0.20327   0.20656   0.21182   0.21519   0.21854
 Alpha virt. eigenvalues --    0.22373   0.22523   0.23244   0.23442   0.23751
 Alpha virt. eigenvalues --    0.24221   0.24792   0.25023   0.25430   0.25825
 Alpha virt. eigenvalues --    0.26253   0.26982   0.27196   0.27436   0.27979
 Alpha virt. eigenvalues --    0.28656   0.28791   0.29079   0.29324   0.29742
 Alpha virt. eigenvalues --    0.29803   0.30071   0.30871   0.31232   0.31840
 Alpha virt. eigenvalues --    0.31969   0.32660   0.33027   0.33256   0.33546
 Alpha virt. eigenvalues --    0.34642   0.35147   0.35594   0.36050   0.36532
 Alpha virt. eigenvalues --    0.37107   0.37606   0.38281   0.38611   0.38850
 Alpha virt. eigenvalues --    0.39116   0.39750   0.40684   0.41244   0.41533
 Alpha virt. eigenvalues --    0.42307   0.42389   0.44101   0.45398   0.45563
 Alpha virt. eigenvalues --    0.46119   0.46434   0.46745   0.47438   0.48416
 Alpha virt. eigenvalues --    0.48663   0.49602   0.50037   0.50535   0.51257
 Alpha virt. eigenvalues --    0.51884   0.52352   0.52950   0.53837   0.54838
 Alpha virt. eigenvalues --    0.55263   0.55802   0.56267   0.56774   0.57985
 Alpha virt. eigenvalues --    0.58609   0.59691   0.60723   0.60776   0.61765
 Alpha virt. eigenvalues --    0.62045   0.62850   0.63419   0.64002   0.64362
 Alpha virt. eigenvalues --    0.64561   0.65686   0.65823   0.66680   0.67646
 Alpha virt. eigenvalues --    0.68098   0.68381   0.68549   0.69095   0.69511
 Alpha virt. eigenvalues --    0.70500   0.70731   0.71239   0.71664   0.71938
 Alpha virt. eigenvalues --    0.71960   0.72875   0.73135   0.74316   0.74692
 Alpha virt. eigenvalues --    0.75582   0.75866   0.76569   0.76770   0.77104
 Alpha virt. eigenvalues --    0.77464   0.78215   0.78916   0.79138   0.80543
 Alpha virt. eigenvalues --    0.80708   0.82155   0.82865   0.83366   0.84801
 Alpha virt. eigenvalues --    0.85274   0.85919   0.88312   0.88928   0.89847
 Alpha virt. eigenvalues --    0.91816   0.92329   0.92999   0.93709   0.97136
 Alpha virt. eigenvalues --    0.98334   1.01056   1.02055   1.04719   1.05929
 Alpha virt. eigenvalues --    1.06722   1.07826   1.09122   1.10713   1.12347
 Alpha virt. eigenvalues --    1.14699   1.18037   1.18746   1.19509   1.20686
 Alpha virt. eigenvalues --    1.21486   1.21847   1.24610   1.25065   1.25774
 Alpha virt. eigenvalues --    1.27104   1.28197   1.28642   1.29801   1.30367
 Alpha virt. eigenvalues --    1.32300   1.34297   1.34894   1.35701   1.37458
 Alpha virt. eigenvalues --    1.38766   1.40051   1.41979   1.42436   1.42521
 Alpha virt. eigenvalues --    1.43923   1.44255   1.44924   1.45396   1.46089
 Alpha virt. eigenvalues --    1.46978   1.47440   1.47824   1.48230   1.49048
 Alpha virt. eigenvalues --    1.49977   1.50708   1.51243   1.51621   1.52304
 Alpha virt. eigenvalues --    1.52847   1.53363   1.54266   1.54853   1.55328
 Alpha virt. eigenvalues --    1.56390   1.57369   1.58760   1.59331   1.60158
 Alpha virt. eigenvalues --    1.60646   1.61347   1.61977   1.62563   1.63867
 Alpha virt. eigenvalues --    1.64283   1.64838   1.66138   1.67306   1.67630
 Alpha virt. eigenvalues --    1.68517   1.68826   1.70160   1.70781   1.71830
 Alpha virt. eigenvalues --    1.72310   1.73113   1.74022   1.74657   1.75288
 Alpha virt. eigenvalues --    1.75811   1.76497   1.77604   1.78981   1.79675
 Alpha virt. eigenvalues --    1.80011   1.80395   1.80702   1.82165   1.83215
 Alpha virt. eigenvalues --    1.84597   1.84883   1.85422   1.86916   1.87483
 Alpha virt. eigenvalues --    1.88154   1.88922   1.90023   1.91386   1.92619
 Alpha virt. eigenvalues --    1.93813   1.94552   1.94788   1.97426   1.98718
 Alpha virt. eigenvalues --    1.99459   2.00609   2.02263   2.02939   2.03662
 Alpha virt. eigenvalues --    2.04294   2.05688   2.06537   2.08828   2.10855
 Alpha virt. eigenvalues --    2.11596   2.12160   2.14443   2.15047   2.15968
 Alpha virt. eigenvalues --    2.17002   2.18298   2.19250   2.19895   2.21720
 Alpha virt. eigenvalues --    2.22979   2.25524   2.26555   2.27464   2.29647
 Alpha virt. eigenvalues --    2.31227   2.32302   2.33084   2.34073   2.35412
 Alpha virt. eigenvalues --    2.38132   2.39580   2.40144   2.42031   2.43762
 Alpha virt. eigenvalues --    2.45253   2.47358   2.48058   2.48361   2.48822
 Alpha virt. eigenvalues --    2.49174   2.49959   2.50640   2.51132   2.51552
 Alpha virt. eigenvalues --    2.51903   2.52658   2.53173   2.53717   2.53956
 Alpha virt. eigenvalues --    2.54217   2.55298   2.55967   2.57438   2.57933
[...]
 00002445,-0.00003017,-0.02495603,0.01673419,-0.01088593,-0.00084004,0.
 00079285,0.00101384,-0.07706578,0.05385187,-0.08603469,-0.00061276,0.0
 0001600,0.00125447,-0.00001571,0.00004529,0.00001668,0.00000726,0.0000
 0961,0.00001206,-0.00000339,0.00000313,0.00001024,-0.00001810,-0.00001
 222,0.00004985,0.00000180,0.00002973,-0.00002651,0.00001524,0.00001538
 ,-0.00000845,0.00000804,0.00000124,0.00000429,-0.00001683,-0.00000420,
 -0.00002811,0.00001019,0.00000849,0.00001137,0.00001038,-0.00000195,0.
 00000252,-0.00004234,-0.00001854,0.00001971,0.00001327,0.00001095,-0.0
 0000270,-0.00003293,-0.00001849,-0.00001952,-0.00000308,-0.00000111,0.
 00001874,0.00000570,0.00001130,-0.00001750,0.00028277,0.00012349,0.000
 41551,0.00045145,-0.00075679,-0.00035817,0.00000659,-0.00015088,-0.000
 04286,0.01045592,-0.00533435,0.00450717,0.08611498,-0.05983771,0.09496
 806,-0.00007147,0.00012970,0.00001844,0.00020996,-0.00024559,0.0000797
 6,0.00042581,0.00017460,0.00035295,0.00093573,0.00051455,-0.00051258,-
 0.00002109,-0.00014771,-0.00003483,0.00003880,-0.00000555,0.00000995,0
 .00000289,0.00000145,0.00002433,0.00002092,-0.00000900,-0.00000912,0.0
 0010918,-0.00006749,0.00000472,0.00000126,-0.00007144,0.00018076,-0.00
 004695,-0.00004506,-0.00003668,0.00001147,0.00001181,-0.00000073,0.000
 00815,0.00000466,0.00002100,0.00001117,0.00000733,0.00000889,-0.003783
 10,-0.00057504,-0.00109192,0.00006778,-0.00017900,-0.00053046,-0.24720
 698,-0.10311300,0.06161087,0.00129309,0.00042825,0.00094256,0.00000360
 ,-0.00000712,-0.00000107,-0.00000125,-0.00000004,-0.00000359,-0.000000
 80,0.00000107,-0.00000250,0.00000067,0.00000329,-0.00000538,-0.0000003
 9,-0.00000296,0.00000912,-0.00000394,-0.00000017,-0.00000059,-0.000001
 95,-0.00000023,-0.00000148,0.00000351,0.00000100,0.00000601,-0.0000026
 2,-0.00000171,-0.00000284,-0.00001027,0.00000333,-0.00001315,0.0000060
 0,0.00000448,-0.00000460,-0.00000306,-0.00000162,-0.00000049,0.0000103
 7,0.00000236,0.00000551,0.00000253,0.00000072,-0.00000876,-0.00000077,
 -0.00000482,-0.00000010,0.00026073,0.00014288,-0.00000331,0.00006328,-
 0.00005974,0.00005708,0.00030413,0.00054910,0.00032221,0.00056401,0.00
 099055,-0.00065143,-0.01904506,-0.01126301,0.00670770,0.26563496,-0.00
 003653,-0.00000973,0.00002278,0.00005112,-0.00006917,-0.00001469,0.000
 12114,0.00009886,0.00029463,-0.00023075,0.00034324,-0.00030236,-0.0003
 9104,-0.00069815,-0.00037201,0.00003126,0.00004144,0.00009037,-0.00000
 307,0.00000582,0.00001228,0.00001842,-0.00000579,-0.00000569,0.0000550
 6,-0.00001590,-0.00000185,0.00065937,-0.00028096,0.00072803,-0.0000114
 3,-0.00000449,-0.00001648,0.00000028,-0.00000165,-0.00000076,0.0000022
 0,-0.00000298,0.00000984,0.00000092,0.00000060,0.00000235,-0.00008396,
 -0.00197800,0.00041633,0.00091739,0.00030747,-0.00050783,-0.10380705,-
 0.10013865,0.03042031,0.00048107,0.00047902,0.00029540,0.00000435,-0.0
 0000202,0.00000069,0.00000247,0.00000732,-0.00000158,0.00000141,-0.000
 00196,-0.00000084,-0.00000225,-0.00000072,0.00000298,-0.00000164,-0.00
 000004,0.00000888,-0.00000248,0.00000321,-0.00000497,-0.00000020,0.000
 00036,-0.00000062,0.,0.00000115,0.00000066,-0.00000045,-0.00000030,-0.
 00000060,-0.00000286,0.00000529,-0.00000544,0.00000132,0.00000180,-0.0
 0000350,-0.00000100,-0.00000128,0.00000084,0.00000271,0.00000078,0.000
 00096,0.00000054,-0.00000059,-0.00000327,0.00000056,0.00000130,0.00000
 015,0.00004539,-0.00000178,0.00015871,0.00006838,0.00001092,-0.0000837
 9,-0.00001369,0.00040756,-0.00006643,-0.02594262,-0.01045214,0.0086131
 7,0.01520338,0.00796732,-0.00569245,0.11308984,0.10344415,0.00000576,0
 .00010906,-0.00002285,0.00007738,-0.00017211,-0.00016383,-0.00048113,-
 0.00006055,0.00035558,0.00116472,-0.00078860,0.00261653,0.00010513,0.0
 0059423,0.00008410,0.00003301,0.00004520,0.00000125,0.00000068,0.00000
 526,0.00000538,0.00001555,-0.00000385,-0.00001123,0.00007713,-0.000076
 88,0.00002080,-0.00014677,-0.00015809,-0.00001599,-0.00003683,-0.00002
 939,-0.00001575,0.00001122,0.00000951,-0.00000370,0.00000816,0.0000101
 4,0.00000848,0.00000971,0.00000361,0.00000746,0.02974622,0.01476437,-0
 .01076856,0.00045347,0.00147617,0.00145038,0.05834568,0.02950616,-0.06
 378594,-0.00084313,-0.00049109,-0.00663970,0.00000321,-0.00000055,-0.0
 0000089,-0.00000048,-0.00000205,-0.00000198,0.00000032,-0.00000091,-0.
 00000074,0.00000603,0.00000164,-0.00001189,-0.00000312,-0.00000864,0.0
 0000213,-0.00000413,-0.00000794,0.00000462,-0.00000220,-0.00000058,-0.
 00000067,0.00000287,-0.00000032,0.00000607,-0.00000107,-0.00000237,-0.
 00000067,-0.00000749,-0.00000170,0.00000433,0.00000746,0.00000212,-0.0
 0000143,-0.00000168,-0.00000198,-0.00000081,0.00001567,0.00000206,0.00
 000632,0.00000392,-0.00000093,-0.00001357,-0.00000334,-0.00001253,0.00
 000164,-0.00037235,0.00005856,0.00020399,-0.00003755,-0.00004197,-0.00
 004144,-0.00030314,-0.00075327,0.00010074,-0.01140761,-0.00405855,0.00
 262504,-0.01064745,-0.00667983,0.00284329,-0.06736239,-0.03388181,0.07
 160225,0.00048384,-0.00074041,-0.00006542,-0.00097773,0.00068656,-0.00
 089247,0.00013984,0.00072934,0.00104535,-0.00520555,-0.00270714,0.0016
 8254,-0.00010941,-0.00199492,-0.00057219,0.00005441,0.00005294,-0.0000
 8624,-0.00001738,-0.00000491,-0.00009236,-0.00010233,0.00004163,0.0000
 3499,-0.00049918,0.00030169,-0.00002698,0.00038435,0.00052337,0.000400
 53,0.00020763,0.00028083,0.00006988,-0.00007094,-0.00007735,-0.0000007
 6,-0.00002696,-0.00004203,-0.00004761,-0.00005548,-0.00003227,-0.00000
 964,-0.02059541,0.01556450,-0.01034321,0.00052637,0.00189150,-0.000589
 38,0.00083397,0.00064924,-0.00078138,-0.21136804,0.11398240,-0.0688816
 2,-0.00001810,0.00003225,0.00000727,0.00000398,0.00000637,0.00001171,-
 0.00000329,0.00000229,0.00000884,-0.00001342,-0.00001209,0.00003003,0.
 00001646,0.00002269,-0.00004883,0.00001363,0.00001617,-0.00000499,0.00
 000913,-0.00000088,0.00000638,-0.00002187,-0.00000165,-0.00003757,0.00
 001212,0.00000970,0.00001407,0.00000923,0.00000042,0.00000206,-0.00003
 164,-0.00001556,0.00001106,0.00001275,0.00001024,-0.00000211,-0.000029
 70,-0.00001795,-0.00002523,0.00000089,0.00000057,0.00001273,0.00000378
 ,0.00001508,-0.00002494,-0.00000732,-0.00013005,0.00004386,0.00062909,
 -0.00090969,0.00013262,0.00049514,0.00001232,0.00028017,-0.00002390,0.
 00000739,0.00000822,0.00011326,-0.00027479,0.00069152,0.00030716,-0.00
 022764,-0.00005252,0.23075457,-0.00009389,-0.00027562,-0.00008704,-0.0
 0016011,0.00028693,-0.00045396,-0.00085364,0.00003172,0.00009625,-0.00
 323988,-0.00037583,0.00058099,-0.00123541,-0.00131412,-0.00114009,-0.0
 0007841,0.00003165,0.00030287,0.00001162,0.00003055,0.00003270,0.00009
 131,-0.00002307,-0.00000487,0.00003589,0.00006634,0.00002310,0.0022774
 9,-0.00006485,0.00000296,0.00001532,0.00002672,-0.00000029,-0.00000330
 ,-0.00000697,-0.00000136,0.00000310,0.00000046,0.00000342,0.00000180,-
 0.00000668,0.00000848,-0.01155673,0.00604100,-0.00477779,-0.00103232,-
 0.00012698,-0.00020090,0.00035414,0.00021310,-0.00020893,0.11773058,-0
 .12613224,0.04964567,0.00001155,-0.00001065,0.00000523,0.00000135,0.00
 001574,-0.00000334,-0.00000584,0.00000204,-0.00000477,-0.00000802,-0.0
 0000108,0.00000097,-0.00001049,-0.00000381,0.00003394,-0.00000573,0.00
 001432,-0.00001561,-0.00000003,-0.00000098,0.00000078,-0.00000239,-0.0
 0000006,-0.00000221,-0.00000051,0.00000149,0.00000047,0.00000055,0.000
 00106,-0.00000082,0.00000018,0.00000084,-0.00000058,-0.00000187,-0.000
 00017,0.00000031,-0.00000156,-0.00000001,-0.00000337,0.00000125,-0.000
 00046,-0.00000218,0.00000102,0.00000008,-0.00000159,0.00001960,-0.0000
 4783,-0.00008211,-0.00073292,-0.00045800,0.00002344,0.00010471,0.00032
 089,-0.00012651,0.00005544,-0.00001803,0.00008234,-0.00005732,0.000127
 01,0.00006576,0.00006090,0.00002163,-0.00025125,-0.12387014,0.13614431
 ,-0.00007532,0.00002972,0.00001834,0.00009203,-0.00007080,0.00010298,0
 .00066724,0.00007635,0.00033658,0.00100389,0.00074723,0.00025672,-0.00
 002769,-0.00033395,-0.00047022,-0.00004843,0.00000846,0.00012954,-0.00
 000346,0.00000771,0.00001455,0.00005246,-0.00004201,0.00001257,0.00007
 463,-0.00003795,-0.00001042,0.00079981,-0.00023772,-0.00010014,-0.0000
 2350,-0.00002664,-0.00000828,0.00000654,0.00000484,-0.00000025,0.00000
 249,0.00000189,0.00000457,0.00000341,0.00000630,-0.00000227,0.00772083
 ,-0.00560475,0.00160929,-0.00009411,-0.00017074,0.00010694,0.00002970,
 -0.00030716,0.00024411,-0.07076688,0.04893863,-0.07565376,0.00000453,-
 0.00000301,0.00000283,0.00000024,0.00000218,-0.00000211,-0.00000264,0.
 00000161,0.00000027,0.00001456,0.00001147,0.00001873,-0.00002091,-0.00
 000092,0.00002984,-0.00000173,-0.00001242,-0.00000362,-0.00000106,-0.0
 0000029,0.00000029,0.00000160,0.00000108,0.00000339,-0.00000158,-0.000
 00137,-0.00000189,-0.00000132,0.00000020,0.00000017,0.00000250,0.00000
 147,-0.00000048,-0.00000106,-0.00000090,0.00000002,0.00000509,0.000001
 17,0.00000387,0.00000002,0.00000025,-0.00000288,-0.00000120,-0.0000015
 9,0.00000445,-0.00012170,0.00005178,-0.00001626,0.00001435,-0.00011072
 ,0.00028389,0.00008973,-0.00015486,-0.00008639,0.00003416,-0.00004639,
 -0.00002455,0.00028471,0.00011512,-0.00020501,-0.00016578,-0.00006280,
 0.00017802,0.07532722,-0.05459740,0.07824735,-0.00009052,0.00020736,0.
 00002754,0.00021906,-0.00023550,0.00021758,-0.00026227,-0.00020655,-0.
 00042639,0.00273161,0.00022806,0.00050460,-0.00016606,0.00062678,0.000
 29567,-0.00002872,0.00002695,0.00000445,-0.00000143,0.00001236,0.00000
 141,0.00000949,0.00002114,0.00002291,0.00011070,-0.00007691,0.00000569
 ,-0.00010272,-0.00001181,-0.00014591,-0.00005070,-0.00005921,-0.000020
 74,0.00001633,0.00001722,0.00000114,0.00000645,0.00000911,0.00001276,0
 .00001377,0.00000674,0.00000134,-0.00281033,-0.00108931,0.02953967,0.0
 0073870,0.00138255,0.00034303,-0.00482430,-0.00272645,0.00063187,-0.04
 603291,-0.00014093,0.00670825,0.00000206,-0.00000044,0.00000138,-0.000
 00202,-0.00000196,-0.00000102,0.00000151,-0.00000375,-0.00000260,0.000
 00818,-0.00000792,-0.00006175,0.00000321,-0.00000072,-0.00000985,-0.00
 000393,0.00000932,0.00000121,-0.00000202,0.00000074,-0.00000187,0.0000
 0568,0.00000070,0.00000875,-0.00000299,-0.00000262,-0.00000381,-0.0000
 0291,0.00000020,-0.00000089,0.00000758,0.00000401,-0.00000335,-0.00000
 239,-0.00000245,0.00000076,0.00000747,0.00000421,0.00000721,-0.0000021
 6,-0.00000129,-0.00000416,-0.00000045,-0.00000565,0.00000710,0.0001312
 2,-0.00038933,-0.00045445,0.00001805,-0.00007869,-0.00008971,-0.000023
 45,0.00022857,-0.00019259,-0.00000176,0.00005144,-0.00024338,0.0002311
 7,-0.00015909,0.00001613,-0.00007768,-0.00024617,0.00179420,0.00160478
 ,-0.00065911,-0.02525801,0.04978126,0.00000932,0.00002126,0.00001731,-
 0.00001363,-0.00000575,0.00009397,-0.00006915,-0.00010268,-0.00032828,
 0.00118525,0.00067566,-0.00047241,-0.00009476,-0.00030402,-0.00031700,
 0.00000075,0.00004553,0.00006704,-0.00001194,0.00000239,-0.00000194,0.
 00000165,0.00000067,-0.00001341,-0.00000227,0.00000045,-0.00000518,0.0
 0056381,-0.00008860,0.00026764,-0.00000162,-0.00000360,0.00001494,0.00
 000428,0.00000433,0.00000092,-0.00000215,-0.00000200,-0.00000051,0.000
 00070,-0.00000086,-0.00000420,0.00078427,-0.00210240,0.01484980,0.0003
 7668,0.00062832,0.00088947,-0.00263061,-0.00111413,0.00026590,-0.00109
 111,-0.04795721,0.00433551,0.00000146,0.00000306,0.00000244,0.00000286
 ,0.00000057,-0.00000064,-0.00000247,0.00000257,0.00000192,0.00003364,0
 .00000062,0.00002398,-0.00001473,-0.00000286,0.00002300,0.00000655,-0.
 00002641,0.00000139,-0.00000103,0.00000024,-0.00000058,0.00000153,-0.0
 0000076,0.00000167,0.00000026,-0.00000030,0.,0.00000024,0.00000038,-0.
 00000029,-0.00000059,0.00000018,-0.00000040,0.00000062,-0.00000006,-0.
 00000037,-0.00000080,0.00000053,0.00000061,-0.00000160,-0.00000106,0.0
 0000049,0.00000092,-0.00000071,0.00000085,-0.00026503,-0.00034005,-0.0
 0019198,-0.00001229,-0.00005178,0.00004747,0.00011103,0.00013752,-0.00
 023008,-0.00004896,0.00010219,0.00020396,-0.00000683,0.00002483,-0.000
 32532,-0.00029446,0.00032794,0.00089607,-0.00185942,-0.00080294,0.0176
 3125,0.00283238,0.04736208,-0.00003930,0.00003559,0.00001035,0.0001185
 4,-0.00008359,-0.00002228,0.00044270,0.00015210,0.00035051,-0.00101673
 ,-0.00012771,0.00094063,0.00015447,-0.00035645,-0.00047169,0.00003500,
 -0.00004963,0.00004467,0.00000769,0.00000847,0.00003431,0.00003993,-0.
 00002282,-0.00004654,0.00006535,-0.00003695,0.00000222,0.00047522,-0.0
 0012345,0.00014378,-0.00002343,-0.00002690,-0.00002112,0.00000591,0.00
 000290,-0.00000164,0.00000515,0.00000495,0.00000657,0.00000670,0.00000
 809,0.00000086,-0.00113107,-0.00021193,-0.01078124,-0.00056990,-0.0007
 1212,0.00038586,0.00249301,0.00123016,0.00102069,0.00911425,0.00635224
 ,-0.31809665,0.00000644,-0.00001127,-0.00000046,-0.00000007,0.00000241
 ,-0.00000328,-0.00000377,0.00000251,-0.00000057,0.00004642,0.00001665,
 0.00005277,-0.00003215,0.00001496,0.00002154,-0.00000297,-0.00003632,0
 .00000568,-0.00000149,0.00000038,0.00000043,0.00000111,0.00000089,0.00
 000337,-0.00000123,-0.00000107,-0.00000117,-0.00000149,-0.00000035,0.0
 0000027,0.00000403,0.00000212,-0.00000098,-0.00000138,-0.00000107,0.00
 000013,0.00000744,0.00000083,0.00000504,-0.00000030,0.00000021,-0.0000
 0431,-0.00000090,-0.00000435,0.00000619,-0.00002162,0.00043783,0.00049
 950,0.00008853,-0.00001164,0.00001997,0.00011453,0.00002689,0.00030300
 ,-0.00012595,-0.00005157,0.00017619,-0.00015220,-0.00006213,0.00026683
 ,0.00020081,0.00007508,-0.00071695,0.00087598,-0.00047593,-0.00896741,
 -0.01115351,-0.00759801,0.34437743,-0.00041285,0.00001830,-0.00002109,
 0.00035366,-0.00010528,0.00007034,-0.00089490,-0.00023991,-0.00051258,
 0.00196733,0.00197880,0.00052844,-0.00404050,-0.00209362,-0.00262409,-
 0.00004026,0.00019806,0.00052697,0.00000478,0.00005530,0.00007796,0.00
 020985,-0.00008398,-0.00001885,0.00037309,-0.00007008,0.00002912,-0.00
 047203,0.00315712,0.00192183,-0.00010324,-0.00010331,-0.00003240,0.000
 03117,0.00003688,0.00000466,0.00001437,0.00001959,0.00002595,0.0000267
 3,-0.00000148,0.00002263,-0.00095550,-0.02689688,-0.01095755,-0.004803
 32,-0.00151233,0.00205668,0.00108781,0.00055743,-0.00134171,-0.0475210
 1,-0.01833623,-0.00730783,0.00002999,-0.00002410,0.00000912,0.00000423
 ,0.00002664,-0.00000808,-0.00000844,0.00000323,-0.00001177,-0.00000573
 ,0.00001276,-0.00001058,-0.00002730,-0.00000457,0.00009093,0.00001000,
 0.00001231,-0.00001994,-0.00000436,-0.00000073,-0.00000296,0.00000894,
 0.00000181,0.00001731,-0.00000886,-0.00000231,-0.00001049,-0.00000351,
 0.00000019,-0.00000245,0.00001520,0.00000878,-0.00000527,-0.00001091,-
 0.00000482,0.00000198,0.00000596,0.00001205,0.00000348,-0.00000014,-0.
 00000008,-0.00000406,-0.00000675,0.00000219,-0.00000585,-0.00005273,0.
 00026735,0.00001811,0.00031941,-0.00008519,0.00020211,0.00008136,-0.00
 176146,-0.00027807,-0.00000317,0.00023503,0.00067026,-0.00003280,0.000
 09501,0.00003361,-0.00001981,0.00024624,-0.00017314,0.00256125,0.02283
 181,0.01038463,-0.00115659,0.00050726,-0.00002970,0.05347957,-0.000053
 25,-0.00022937,-0.00003735,-0.00015753,0.00023774,-0.00010432,0.000083
 87,-0.00000138,0.00008781,-0.00005895,0.00023645,-0.00015334,0.0003893
 8,-0.00070656,-0.00096103,-0.00013517,0.00010332,0.00030734,-0.0000024
 6,0.00001974,-0.00000148,0.00005823,-0.00000986,0.00001838,-0.00004113
 ,0.00008410,-0.00000204,0.00553836,-0.00266257,-0.00068662,0.00003183,
 0.00004427,0.00001492,-0.00001181,-0.00001175,0.00000247,-0.00000398,-
 0.00000703,-0.00001008,-0.00000613,-0.00000458,0.00000231,0.00095772,-
 0.01313513,-0.00440897,-0.00345937,-0.00062030,0.00163142,0.00068407,0
 .00038019,-0.00072078,-0.02309598,-0.29212780,-0.09478853,0.00000129,0
 .00000402,0.00000999,0.00000496,0.00000950,-0.00000149,-0.00000942,0.0
 0000369,0.00000176,-0.00000033,-0.00000020,0.00001020,-0.00002195,-0.0
 0001229,0.00002013,-0.00003127,0.00000971,-0.00002317,0.00000191,-0.00
 000006,0.00000115,-0.00000347,0.00000070,-0.00000667,0.00000021,0.0000
 0226,0.00000025,0.00000243,-0.00000001,-0.00000022,-0.00000629,-0.0000
 0216,0.00000222,-0.00000015,0.00000214,0.00000060,-0.00001081,-0.00000
 161,-0.00000727,-0.00000097,0.00000084,0.00000663,-0.00000054,0.000008
 70,-0.00001106,0.00011216,0.00011244,-0.00013302,-0.00004387,0.0004390
 1,-0.00000850,-0.00001558,-0.00081460,-0.00047893,-0.00020171,0.000156
 68,0.00062038,-0.00002484,-0.00004484,0.00006097,-0.00002711,0.0001891
 0,0.00000357,-0.00192060,-0.01370748,-0.00581431,0.00043604,0.00356683
 ,0.00162997,0.02104221,0.31848813,-0.00006863,-0.00000266,-0.00003065,
 0.00003559,-0.00004221,-0.00001854,-0.00004442,0.00005653,0.00003740,-
 0.00029013,-0.00061102,-0.00006571,-0.00030352,-0.00001506,0.00014374,
 -0.00009713,-0.00007004,0.00011309,0.00000651,0.00000742,0.00001484,0.
 00001849,-0.00001556,-0.00001535,0.00004494,-0.00001285,0.00000602,0.0
 0197894,-0.00077140,-0.00052718,-0.00001506,-0.00001115,-0.00000629,0.
 00000413,0.00000276,-0.00000044,0.00000146,0.00000159,0.00000357,0.000
 00410,0.00000134,0.00000106,-0.00057701,0.01026520,0.00230143,0.001679
 80,0.00119314,-0.00024514,-0.00041782,0.00066255,0.00090927,-0.0090032
 4,-0.09622787,-0.08651539,0.00000235,-0.00000546,0.00000069,-0.0000030
 0,0.00000426,-0.00000137,0.00000033,0.00000062,-0.00000227,-0.00000843
 ,-0.00000573,0.00000026,0.00000445,0.00000413,0.00000602,0.00000962,0.
 00001701,0.00000762,-0.00000049,-0.00000024,-0.00000005,0.00000098,0.0
 0000084,0.00000195,-0.00000112,-0.00000030,-0.00000077,-0.00000080,-0.
 00000004,-0.00000014,0.00000193,0.00000114,-0.00000091,-0.00000111,-0.
 00000089,0.00000008,0.00000262,0.00000111,0.00000165,0.00000050,0.0000
 0047,-0.00000214,-0.00000043,-0.00000240,0.00000274,0.00007309,0.00025
 132,0.00030878,0.00027486,-0.00025272,-0.00007824,0.00028085,0.0005437
 1,0.00065432,0.00006307,-0.00016978,-0.00011601,-0.00002749,0.00001397
 ,0.00000417,-0.00011886,-0.00012464,0.00009017,0.00188843,0.01153319,0
 .00394664,-0.00208067,-0.03014700,-0.00954250,0.00668232,0.10392671,0.
 08861361\\0.00000265,-0.00000434,-0.00000025,0.00000038,0.00000441,-0.
 00000088,0.00000092,-0.00000037,0.00000191,-0.00000038,-0.00000224,-0.
 00000096,0.00000083,0.00000257,0.00000226,-0.00000042,0.00000058,-0.00
 000197,0.00000054,-0.00000077,-0.00000189,0.00000075,-0.00000121,-0.00
 000028,-0.00000224,0.00000154,-0.00000166,-0.00000136,0.00000026,-0.00
 000166,-0.00000090,-0.00000213,0.00000028,0.00000021,-0.00000089,0.000
 00016,0.00000036,0.00000031,0.00000016,-0.00000011,0.00000066,0.000001
 00,-0.00000096,0.00000073,0.00000062,-0.00000001,0.00000064,0.00000223
 ,-0.00000014,0.00000086,0.00000006,0.00000059,0.00000129,0.00000084,0.
 00000014,-0.00000037,-0.00000223,0.00000013,0.00000011,-0.00000214,0.0
 0000022,0.00000069,-0.00000116,0.00000021,-0.00000092,-0.00000101,0.00
 000049,-0.00000090,-0.00000188,-0.00000008,-0.00000045,-0.00000118,0.0
 0000059,-0.00000137,0.00000014,0.00000012,-0.00000126,-0.00000010,0.00
 000050,-0.00000091,-0.00000023,-0.00000002,0.00000034,0.00000009,-0.00
 000014,-0.00000029,0.00000005,-0.00000002,0.00000018,-0.00000057,-0.00
 000041,-0.00000057,0.00000108,0.00000011,-0.00000071,0.00000108,-0.000
 00008,0.00000007,0.00000155,-0.00000006,-0.00000010,0.00000097,-0.0000
 0025,0.00000046,0.00000147,-0.00000052,0.00000070,0.00000105,-0.000000
 48,0.00000166,0.,-0.00000046,0.00000135,0.00000093,-0.00000059,0.00000
 135,0.00000111,-0.00000002,-0.00000012,0.00000076,0.00000013,-0.000000
 69,0.00000030,-0.00000022,-0.00000015,-0.00000007\\\@


      TO SUSPECT YOUR OWN MORTALITY IS TO KNOW THE BEGINNING OF TERROR.
      TO LEARN IRREFUTABLY THAT YOU ARE MORTAL IS TO KNOW THE END
      OF TERROR.

                                                  -- JESSICA
                                                     CHILDREN OF DUNE
                                                     BY FRANK HERBERT
 Job cpu time:       4 days 21 hours 25 minutes  3.9 seconds.
 File lengths (MBytes):  RWF=   2005 Int=      0 D2E=      0 Chk=     32 Scr=      1
 Normal termination of Gaussian 09 at Wed Jun  9 00:19:02 2021.
