 Entering Gaussian System, Link 0=g09
 Input=NHC30.gjf
 Output=NHC30.log
 Initial command:
 /usr/local/gqt/g09/l1.exe "/usr/local/gqt/lixogaussian/Gau-31324.inp" -scrdir="/usr/local/gqt/lixogaussian/"
 Entering Link 1 = /usr/local/gqt/g09/l1.exe PID=     31326.
  
 Copyright (c) 1988,1990,1992,1993,1995,1998,2003,2009,2013,
            Gaussian, Inc.  All Rights Reserved.
  
 This is part of the Gaussian(R) 09 program.  It is based on
 the Gaussian(R) 03 system (copyright 2003, Gaussian, Inc.),
 the Gaussian(R) 98 system (copyright 1998, Gaussian, Inc.),
 the Gaussian(R) 94 system (copyright 1995, Gaussian, Inc.),
 the Gaussian 92(TM) system (copyright 1992, Gaussian, Inc.),
 the Gaussian 90(TM) system (copyright 1990, Gaussian, Inc.),
 the Gaussian 88(TM) system (copyright 1988, Gaussian, Inc.),
 the Gaussian 86(TM) system (copyright 1986, Carnegie Mellon
 University), and the Gaussian 82(TM) system (copyright 1983,
 Carnegie Mellon University). Gaussian is a federally registered
 trademark of Gaussian, Inc.
  
 This software contains proprietary and confidential information,
 including trade secrets, belonging to Gaussian, Inc.
  
 This software is provided under written license and may be
 used, copied, transmitted, or stored only in accord with that
 written license.
  
 The following legend is applicable only to US Government
 contracts under FAR:
  
                    RESTRICTED RIGHTS LEGEND
  
 Use, reproduction and disclosure by the US Government is
 subject to restrictions as set forth in subparagraphs (a)
 and (c) of the Commercial Computer Software - Restricted
 Rights clause in FAR 52.227-19.
  
 Gaussian, Inc.
 340 Quinnipiac St., Bldg. 40, Wallingford CT 06492
  
  
 ---------------------------------------------------------------
 Warning -- This program may not be used in any manner that
 competes with the business of Gaussian, Inc. or will provide
 assistance to any competitor of Gaussian, Inc.  The licensee
 of this program is prohibited from giving any competitor of
 Gaussian, Inc. access to this program.  By using this program,
 the user acknowledges that Gaussian, Inc. is engaged in the
 business of creating and licensing software in the field of
 computational chemistry and represents and warrants to the
 licensee that it is not a competitor of Gaussian, Inc. and that
 it will not use this program in any manner prohibited above.
 ---------------------------------------------------------------
  

 Cite this work as:
 Gaussian 09, Revision D.01,
 M. J. Frisch, G. W. Trucks, H. B. Schlegel, G. E. Scuseria, 
 M. A. Robb, J. R. Cheeseman, G. Scalmani, V. Barone, B. Mennucci, 
 G. A. Petersson, H. Nakatsuji, M. Caricato, X. Li, H. P. Hratchian, 
 A. F. Izmaylov, J. Bloino, G. Zheng, J. L. Sonnenberg, M. Hada, 
 M. Ehara, K. Toyota, R. Fukuda, J. Hasegawa, M. Ishida, T. Nakajima, 
 Y. Honda, O. Kitao, H. Nakai, T. Vreven, J. A. Montgomery, Jr., 
 J. E. Peralta, F. Ogliaro, M. Bearpark, J. J. Heyd, E. Brothers, 
 K. N. Kudin, V. N. Staroverov, T. Keith, R. Kobayashi, J. Normand, 
 K. Raghavachari, A. Rendell, J. C. Burant, S. S. Iyengar, J. Tomasi, 
 M. Cossi, N. Rega, J. M. Millam, M. Klene, J. E. Knox, J. B. Cross, 
 V. Bakken, C. Adamo, J. Jaramillo, R. Gomperts, R. E. Stratmann, 
 O. Yazyev, A. J. Austin, R. Cammi, C. Pomelli, J. W. Ochterski, 
 R. L. Martin, K. Morokuma, V. G. Zakrzewski, G. A. Voth, 
 P. Salvador, J. J. Dannenberg, S. Dapprich, A. D. Daniels, 
 O. Farkas, J. B. Foresman, J. V. Ortiz, J. Cioslowski, 
 and D. J. Fox, Gaussian, Inc., Wallingford CT, 2013.
 
 ******************************************
 Gaussian 09:  ES64L-G09RevD.01 24-Apr-2013
                17-Nov-2021 
 ******************************************
 %nprocshared=16
 Will use up to   16 processors via shared memory.
 %mem=50GB
 %chk=NHC30.chk
 ----------------------------------------------------------
 #p opt freq n12sx/6-311+g(d,p) scrf=(iefpcm,solvent=water)
 ----------------------------------------------------------
 1/14=-1,18=20,19=15,26=3,38=1/1,3;
 2/9=110,12=2,17=6,18=5,40=1/2;
 3/5=4,6=6,7=111,11=2,16=1,25=1,30=1,70=2201,71=1,72=1,74=-69/1,2,3;
 4//1;
 5/5=2,38=5,53=1/2;
 6/7=2,8=2,9=2,10=2,28=1/1;
 7//1,2,3,16;
 1/14=-1,18=20,19=15,26=3/3(2);
 2/9=110/2;
 99//99;
 2/9=110/2;
 3/5=4,6=6,7=111,11=2,16=1,25=1,30=1,70=2205,71=1,72=1,74=-69/1,2,3;
 4/5=5,16=3,69=1/1;
 5/5=2,38=5,53=1/2;
 7//1,2,3,16;
 1/14=-1,18=20,19=15,26=3/3(-5);
 2/9=110/2;
 6/7=2,8=2,9=2,10=2,19=2,28=1/1;
 99/9=1/99;
 Leave Link    1 at Wed Nov 17 23:28:27 2021, MaxMem=  6710886400 cpu:         1.0
 (Enter /usr/local/gqt/g09/l101.exe)
 -----
 TITLE
 -----
 Symbolic Z-matrix:
 Charge =  0 Multiplicity = 1
 7                     0.04979   0.18693  -0.01653 
 6                    -1.28653   0.16135  -0.00851 
 7                    -1.64642  -1.16638   0.01286 
 6                    -0.53426  -2.03562   0.01865 
 6                     0.49348  -1.13185  -0.00061 
 6                    -2.2482    1.17487  -0.01654 
 6                    -3.56611   0.80578  -0.0025 
 6                    -3.92676  -0.55834   0.01925 
 6                    -2.96176  -1.51539   0.02648 
 6                     0.89049   1.36201  -0.0415 
 1                     1.55402  -1.31288  -0.00416 
 1                    -1.95139   2.2106   -0.03366 
 1                    -4.33451   1.56273  -0.00777 
 1                    -4.96286  -0.85338   0.03006 
 1                    -3.1547   -2.57449   0.04283 
 1                     0.27955   2.25667  -0.03166 
 1                     1.53901   1.37276   0.8302 
 1                     1.49994   1.36483  -0.94116 
 
 NAtoms=     18 NQM=       18 NQMF=       0 NMMI=      0 NMMIF=      0
                NMic=       0 NMicF=      0.
                    Isotopes and Nuclear Properties:
 (Nuclear quadrupole moments (NQMom) in fm**2, nuclear magnetic moments (NMagM)
  in nuclear magnetons)

  Atom         1           2           3           4           5           6           7           8           9          10
 IAtWgt=          14          12          14          12          12          12          12          12          12          12
 AtmWgt=  14.0030740  12.0000000  14.0030740  12.0000000  12.0000000  12.0000000  12.0000000  12.0000000  12.0000000  12.0000000
 NucSpn=           2           0           2           0           0           0           0           0           0           0
 AtZEff=   0.0000000   0.0000000   0.0000000   0.0000000   0.0000000   0.0000000   0.0000000   0.0000000   0.0000000   0.0000000
 NQMom=    2.0440000   0.0000000   2.0440000   0.0000000   0.0000000   0.0000000   0.0000000   0.0000000   0.0000000   0.0000000
 NMagM=    0.4037610   0.0000000   0.4037610   0.0000000   0.0000000   0.0000000   0.0000000   0.0000000   0.0000000   0.0000000
 AtZNuc=   7.0000000   6.0000000   7.0000000   6.0000000   6.0000000   6.0000000   6.0000000   6.0000000   6.0000000   6.0000000

  Atom        11          12          13          14          15          16          17          18
 IAtWgt=           1           1           1           1           1           1           1           1
 AtmWgt=   1.0078250   1.0078250   1.0078250   1.0078250   1.0078250   1.0078250   1.0078250   1.0078250
 NucSpn=           1           1           1           1           1           1           1           1
 AtZEff=   0.0000000   0.0000000   0.0000000   0.0000000   0.0000000   0.0000000   0.0000000   0.0000000
 NQMom=    0.0000000   0.0000000   0.0000000   0.0000000   0.0000000   0.0000000   0.0000000   0.0000000
 NMagM=    2.7928460   2.7928460   2.7928460   2.7928460   2.7928460   2.7928460   2.7928460   2.7928460
 AtZNuc=   1.0000000   1.0000000   1.0000000   1.0000000   1.0000000   1.0000000   1.0000000   1.0000000
 Leave Link  101 at Wed Nov 17 23:28:28 2021, MaxMem=  6710886400 cpu:         6.7
 (Enter /usr/local/gqt/g09/l103.exe)

 GradGradGradGradGradGradGradGradGradGradGradGradGradGradGradGradGradGrad
 Berny optimization.
 Initialization pass.
                           ----------------------------
                           !    Initial Parameters    !
                           ! (Angstroms and Degrees)  !
 --------------------------                            --------------------------
 ! Name  Definition              Value          Derivative Info.                !
 --------------------------------------------------------------------------------
 ! R1    R(1,2)                  1.3366         estimate D2E/DX2                !
 ! R2    R(1,5)                  1.3915         estimate D2E/DX2                !
 ! R3    R(1,10)                 1.4451         estimate D2E/DX2                !
 ! R4    R(2,3)                  1.3758         estimate D2E/DX2                !
 ! R5    R(2,6)                  1.3972         estimate D2E/DX2                !
 ! R6    R(3,4)                  1.4116         estimate D2E/DX2                !
 ! R7    R(3,9)                  1.3609         estimate D2E/DX2                !
 ! R8    R(4,5)                  1.3687         estimate D2E/DX2                !
 ! R9    R(5,11)                 1.0759         estimate D2E/DX2                !
 ! R10   R(6,7)                  1.3687         estimate D2E/DX2                !
 ! R11   R(6,12)                 1.0776         estimate D2E/DX2                !
 ! R12   R(7,8)                  1.4112         estimate D2E/DX2                !
 ! R13   R(7,13)                 1.0786         estimate D2E/DX2                !
 ! R14   R(8,9)                  1.3591         estimate D2E/DX2                !
 ! R15   R(8,14)                 1.0773         estimate D2E/DX2                !
 ! R16   R(9,15)                 1.0767         estimate D2E/DX2                !
 ! R17   R(10,16)                1.0834         estimate D2E/DX2                !
 ! R18   R(10,17)                1.0865         estimate D2E/DX2                !
 ! R19   R(10,18)                1.0867         estimate D2E/DX2                !
 ! A1    A(2,1,5)              107.4928         estimate D2E/DX2                !
 ! A2    A(2,1,10)             126.6781         estimate D2E/DX2                !
 ! A3    A(5,1,10)             125.8288         estimate D2E/DX2                !
 ! A4    A(1,2,3)              106.2657         estimate D2E/DX2                !
 ! A5    A(1,2,6)              132.3953         estimate D2E/DX2                !
 ! A6    A(3,2,6)              121.339          estimate D2E/DX2                !
 ! A7    A(2,3,4)              112.8451         estimate D2E/DX2                !
 ! A8    A(2,3,9)              120.0306         estimate D2E/DX2                !
 ! A9    A(4,3,9)              127.1243         estimate D2E/DX2                !
 ! A10   A(3,4,5)              100.6578         estimate D2E/DX2                !
 ! A11   A(1,5,4)              112.7386         estimate D2E/DX2                !
 ! A12   A(1,5,11)             118.2769         estimate D2E/DX2                !
 ! A13   A(4,5,11)             128.9844         estimate D2E/DX2                !
 ! A14   A(2,6,7)              117.8451         estimate D2E/DX2                !
 ! A15   A(2,6,12)             120.514          estimate D2E/DX2                !
 ! A16   A(7,6,12)             121.6409         estimate D2E/DX2                !
 ! A17   A(6,7,8)              120.4593         estimate D2E/DX2                !
 ! A18   A(6,7,13)             119.7795         estimate D2E/DX2                !
 ! A19   A(8,7,13)             119.7612         estimate D2E/DX2                !
 ! A20   A(7,8,9)              119.9547         estimate D2E/DX2                !
 ! A21   A(7,8,14)             120.7087         estimate D2E/DX2                !
 ! A22   A(9,8,14)             119.3366         estimate D2E/DX2                !
 ! A23   A(3,9,8)              120.3713         estimate D2E/DX2                !
 ! A24   A(3,9,15)             115.1897         estimate D2E/DX2                !
 ! A25   A(8,9,15)             124.439          estimate D2E/DX2                !
 ! A26   A(1,10,16)            110.077          estimate D2E/DX2                !
 ! A27   A(1,10,17)            109.9638         estimate D2E/DX2                !
 ! A28   A(1,10,18)            110.0414         estimate D2E/DX2                !
 ! A29   A(16,10,17)           108.7311         estimate D2E/DX2                !
 ! A30   A(16,10,18)           108.7619         estimate D2E/DX2                !
 ! A31   A(17,10,18)           109.2349         estimate D2E/DX2                !
 ! D1    D(5,1,2,3)              0.031          estimate D2E/DX2                !
 ! D2    D(5,1,2,6)            179.9642         estimate D2E/DX2                !
 ! D3    D(10,1,2,3)           179.8487         estimate D2E/DX2                !
 ! D4    D(10,1,2,6)            -0.2181         estimate D2E/DX2                !
 ! D5    D(2,1,5,4)             -0.0323         estimate D2E/DX2                !
 ! D6    D(2,1,5,11)           179.9998         estimate D2E/DX2                !
 ! D7    D(10,1,5,4)          -179.852          estimate D2E/DX2                !
 ! D8    D(10,1,5,11)            0.1801         estimate D2E/DX2                !
 ! D9    D(2,1,10,16)            1.2243         estimate D2E/DX2                !
 ! D10   D(2,1,10,17)          120.9949         estimate D2E/DX2                !
 ! D11   D(2,1,10,18)         -118.6333         estimate D2E/DX2                !
 ! D12   D(5,1,10,16)         -178.9901         estimate D2E/DX2                !
 ! D13   D(5,1,10,17)          -59.2195         estimate D2E/DX2                !
 ! D14   D(5,1,10,18)           61.1523         estimate D2E/DX2                !
 ! D15   D(1,2,3,4)             -0.0213         estimate D2E/DX2                !
 ! D16   D(1,2,3,9)            179.9509         estimate D2E/DX2                !
 ! D17   D(6,2,3,4)           -179.9635         estimate D2E/DX2                !
 ! D18   D(6,2,3,9)              0.0087         estimate D2E/DX2                !
 ! D19   D(1,2,6,7)           -179.9275         estimate D2E/DX2                !
 ! D20   D(1,2,6,12)             0.0957         estimate D2E/DX2                !
 ! D21   D(3,2,6,7)             -0.0026         estimate D2E/DX2                !
 ! D22   D(3,2,6,12)          -179.9794         estimate D2E/DX2                !
 ! D23   D(2,3,4,5)              0.002          estimate D2E/DX2                !
 ! D24   D(9,3,4,5)           -179.9678         estimate D2E/DX2                !
 ! D25   D(2,3,9,8)             -0.0079         estimate D2E/DX2                !
 ! D26   D(2,3,9,15)           179.9954         estimate D2E/DX2                !
 ! D27   D(4,3,9,8)            179.96           estimate D2E/DX2                !
 ! D28   D(4,3,9,15)            -0.0367         estimate D2E/DX2                !
 ! D29   D(3,4,5,1)              0.018          estimate D2E/DX2                !
 ! D30   D(3,4,5,11)           179.9816         estimate D2E/DX2                !
 ! D31   D(2,6,7,8)             -0.0042         estimate D2E/DX2                !
 ! D32   D(2,6,7,13)           179.9759         estimate D2E/DX2                !
 ! D33   D(12,6,7,8)           179.9723         estimate D2E/DX2                !
 ! D34   D(12,6,7,13)           -0.0476         estimate D2E/DX2                !
 ! D35   D(6,7,8,9)              0.0051         estimate D2E/DX2                !
 ! D36   D(6,7,8,14)          -179.9809         estimate D2E/DX2                !
 ! D37   D(13,7,8,9)          -179.975          estimate D2E/DX2                !
 ! D38   D(13,7,8,14)            0.0389         estimate D2E/DX2                !
 ! D39   D(7,8,9,3)              0.0011         estimate D2E/DX2                !
 ! D40   D(7,8,9,15)           179.9975         estimate D2E/DX2                !
 ! D41   D(14,8,9,3)           179.9873         estimate D2E/DX2                !
 ! D42   D(14,8,9,15)           -0.0163         estimate D2E/DX2                !
 --------------------------------------------------------------------------------
 Trust Radius=3.00D-01 FncErr=1.00D-07 GrdErr=1.00D-06
 Number of steps in this run=    102 maximum allowed number of steps=    108.
 GradGradGradGradGradGradGradGradGradGradGradGradGradGradGradGradGradGrad

 Leave Link  103 at Wed Nov 17 23:28:28 2021, MaxMem=  6710886400 cpu:         0.1
 (Enter /usr/local/gqt/g09/l202.exe)
                          Input orientation:                          
 ---------------------------------------------------------------------
 Center     Atomic      Atomic             Coordinates (Angstroms)
 Number     Number       Type             X           Y           Z
 ---------------------------------------------------------------------
      1          7           0        0.049791    0.186928   -0.016533
      2          6           0       -1.286533    0.161350   -0.008511
      3          7           0       -1.646422   -1.166383    0.012860
      4          6           0       -0.534259   -2.035618    0.018652
      5          6           0        0.493480   -1.131852   -0.000610
      6          6           0       -2.248200    1.174867   -0.016543
      7          6           0       -3.566105    0.805779   -0.002499
      8          6           0       -3.926757   -0.558340    0.019253
      9          6           0       -2.961760   -1.515385    0.026475
     10          6           0        0.890488    1.362010   -0.041497
     11          1           0        1.554021   -1.312879   -0.004160
     12          1           0       -1.951386    2.210596   -0.033656
     13          1           0       -4.334511    1.562731   -0.007769
     14          1           0       -4.962860   -0.853381    0.030055
     15          1           0       -3.154700   -2.574489    0.042827
     16          1           0        0.279547    2.256673   -0.031660
     17          1           0        1.539006    1.372758    0.830202
     18          1           0        1.499936    1.364834   -0.941164
 ---------------------------------------------------------------------
                    Distance matrix (angstroms):
                    1          2          3          4          5
     1  N    0.000000
     2  C    1.336593   0.000000
     3  N    2.170127   1.375809   0.000000
     4  C    2.298274   2.322353   1.411563   0.000000
     5  C    1.391508   2.200200   2.140223   1.368726   0.000000
     6  C    2.501357   1.397170   2.417530   3.639512   3.583018
     7  C    3.668498   2.368918   2.752243   4.155247   4.498294
     8  C    4.045941   2.736696   2.360018   3.700188   4.457332
     9  C    3.459647   2.370453   1.360919   2.482633   3.476566
    10  C    1.445065   2.486381   3.582128   3.684752   2.525596
    11  H    2.124213   3.200331   3.203839   2.209929   1.075886
    12  H    2.846091   2.154547   3.391040   4.476753   4.141307
    13  H    4.595108   3.354704   3.830706   5.233615   5.529044
    14  H    5.119676   3.813994   3.331220   4.583702   5.463527
    15  H    4.230569   3.313231   2.063629   2.675384   3.923303
    16  H    2.082513   2.616012   3.927932   4.369047   3.395414
    17  H    2.083486   3.186631   4.154785   4.071126   2.838388
    18  H    2.084544   3.175315   4.149312   4.077042   2.851497
                    6          7          8          9         10
     6  C    0.000000
     7  C    1.368684   0.000000
     8  C    2.413056   1.411157   0.000000
     9  C    2.783608   2.398724   1.359120   0.000000
    10  C    3.144361   4.491340   5.186259   4.808725   0.000000
    11  H    4.543778   5.541156   5.532522   4.520423   2.756211
    12  H    1.077556   2.140514   3.401749   3.861011   2.965874
    13  H    2.122077   1.078634   2.160078   3.370522   5.228962
    14  H    3.389003   2.169054   1.077346   2.107763   6.258974
    15  H    3.857841   3.405513   2.159047   1.076659   5.645058
    16  H    2.749552   4.110351   5.061609   4.973718   1.083406
    17  H    3.885752   5.203558   5.853319   5.407795   1.086531
    18  H    3.865169   5.182510   5.836951   5.398029   1.086663
                   11         12         13         14         15
    11  H    0.000000
    12  H    4.970274   0.000000
    13  H    6.553164   2.469754   0.000000
    14  H    6.533150   4.296625   2.496768   0.000000
    15  H    4.875030   4.934658   4.302453   2.496361   0.000000
    16  H    3.790348   2.231410   4.666011   6.095824   5.927877
    17  H    2.812300   3.692026   5.936033   6.918829   6.183170
    18  H    2.837437   3.667493   5.911951   6.901556   6.176742
                   16         17         18
    16  H    0.000000
    17  H    1.763618   0.000000
    18  H    1.764065   1.771815   0.000000
 Stoichiometry    C8H8N2
 Framework group  C1[X(C8H8N2)]
 Deg. of freedom    48
 Full point group                 C1      NOp   1
 Largest Abelian subgroup         C1      NOp   1
 Largest concise Abelian subgroup C1      NOp   1
                         Standard orientation:                         
 ---------------------------------------------------------------------
 Center     Atomic      Atomic             Coordinates (Angstroms)
 Number     Number       Type             X           Y           Z
 ---------------------------------------------------------------------
      1          7           0        1.509271   -0.173926   -0.001125
      2          6           0        0.181725   -0.329172    0.000026
      3          7           0       -0.354424    0.937870    0.000430
      4          6           0        0.630007    1.949504    0.000020
      5          6           0        1.770558    1.192830   -0.000695
      6          6           0       -0.634083   -1.463431   -0.000423
      7          6           0       -1.989842   -1.275781   -0.000395
      8          6           0       -2.531667    0.027212    0.000165
      9          6           0       -1.704923    1.105961    0.000577
     10          6           0        2.501208   -1.224768    0.001128
     11          1           0        2.796907    1.515534   -0.001482
     12          1           0       -0.199917   -2.449649   -0.000403
     13          1           0       -2.648857   -2.129684   -0.001129
     14          1           0       -3.598187    0.179562    0.000498
     15          1           0       -2.039323    2.129373    0.000975
     16          1           0        2.016687   -2.193608   -0.017760
     17          1           0        3.137799   -1.135879   -0.874885
     18          1           0        3.113073   -1.157384    0.896626
 ---------------------------------------------------------------------
 Rotational constants (GHZ):      2.7944775      1.3534570      0.9170638
 Leave Link  202 at Wed Nov 17 23:28:28 2021, MaxMem=  6710886400 cpu:         0.1
 (Enter /usr/local/gqt/g09/l301.exe)
 Standard basis: 6-311+G(d,p) (5D, 7F)
 Ernie: Thresh=  0.10000D-02 Tol=  0.10000D-05 Strict=F.
 There are   278 symmetry adapted cartesian basis functions of A   symmetry.
 There are   268 symmetry adapted basis functions of A   symmetry.
   268 basis functions,   424 primitive gaussians,   278 cartesian basis functions
    35 alpha electrons       35 beta electrons
       nuclear repulsion energy       497.3111078928 Hartrees.
 IExCor= 5547 DFT=T Ex+Corr=N12SX ExCW=0 ScaHFX=  0.250000
 ScaDFX=  1.000000  1.000000  1.000000  1.000000 ScalE2=  1.000000  1.000000
 IRadAn=      0 IRanWt=     -1 IRanGd=            0 ICorTp=0 IEmpDi=  4
  HFx wShort=  0.110000 wLong=  0.000000 cFull=  0.000000 cShort=  1.000000 cLong=  0.000000
  DFx wShort=  0.110000 wLong=  0.000000 cFull=  0.000000 cShort=  1.000000 cLong=  0.000000
 NAtoms=   18 NActive=   18 NUniq=   18 SFac= 1.00D+00 NAtFMM=   60 NAOKFM=F Big=F
 Integral buffers will be    131072 words long.
 Raffenetti 2 integral format.
 Two-electron integral symmetry is turned on.
 ------------------------------------------------------------------------------
 Polarizable Continuum Model (PCM)
 =================================
 Model                : PCM (using non-symmetric T matrix).
 Atomic radii         : UFF (Universal Force Field).
 Polarization charges : Total charges.
 Charge compensation  : None.
 Solution method      : On-the-fly selection.
 Cavity type          : Scaled VdW (van der Waals Surface) (Alpha=1.100).
 Cavity algorithm     : GePol (No added spheres)
                        Default sphere list used, NSphG=   18.
                        Lebedev-Laikov grids with approx.  5.0 points / Ang**2.
                        Smoothing algorithm: Karplus/York (Gamma=1.0000).
                        Polarization charges: spherical gaussians, with
                                              point-specific exponents (IZeta= 3).
                        Self-potential: point-specific (ISelfS= 7).
                        Self-field    : sphere-specific E.n sum rule (ISelfD= 2).
 1st derivatives      : Analytical E(r).r(x)/FMM algorithm (CHGder, D1EAlg=3).
                        Cavity 1st derivative terms included.
 Solvent              : Water, Eps=  78.355300 Eps(inf)=   1.777849
 ------------------------------------------------------------------------------
 Spheres list:
 ISph  on   Nord     Re0    Alpha      Xe            Ye            Ze
    1   N      1    1.8300  1.100      1.509271     -0.173926     -0.001125
    2   C      2    1.9255  1.100      0.181725     -0.329172      0.000026
    3   N      3    1.8300  1.100     -0.354424      0.937870      0.000430
    4   C      4    1.9255  1.100      0.630007      1.949504      0.000020
    5   C      5    1.9255  1.100      1.770558      1.192830     -0.000695
    6   C      6    1.9255  1.100     -0.634083     -1.463431     -0.000423
    7   C      7    1.9255  1.100     -1.989842     -1.275781     -0.000395
    8   C      8    1.9255  1.100     -2.531667      0.027212      0.000165
    9   C      9    1.9255  1.100     -1.704923      1.105961      0.000577
   10   C     10    1.9255  1.100      2.501208     -1.224768      0.001128
   11   H     11    1.4430  1.100      2.796907      1.515534     -0.001482
   12   H     12    1.4430  1.100     -0.199917     -2.449649     -0.000403
   13   H     13    1.4430  1.100     -2.648857     -2.129684     -0.001129
   14   H     14    1.4430  1.100     -3.598187      0.179562      0.000498
   15   H     15    1.4430  1.100     -2.039323      2.129373      0.000975
   16   H     16    1.4430  1.100      2.016687     -2.193608     -0.017760
   17   H     17    1.4430  1.100      3.137799     -1.135879     -0.874885
   18   H     18    1.4430  1.100      3.113073     -1.157384      0.896626
 ------------------------------------------------------------------------------
 GePol: Number of generator spheres                  =      18
 GePol: Total number of spheres                      =      18
 GePol: Number of exposed spheres                    =      18 (100.00%)
 GePol: Number of points                             =    1485
 GePol: Average weight of points                     =       0.13
 GePol: Minimum weight of points                     =   0.28D-07
 GePol: Maximum weight of points                     =    0.20577
 GePol: Number of points with low weight             =      95
 GePol: Fraction of low-weight points (<1% of avg)   =       6.40%
 GePol: Cavity surface area                          =    195.037 Ang**2
 GePol: Cavity volume                                =    196.705 Ang**3
 Leave Link  301 at Wed Nov 17 23:28:28 2021, MaxMem=  6710886400 cpu:         0.7
 (Enter /usr/local/gqt/g09/l302.exe)
 NPDir=0 NMtPBC=     1 NCelOv=     1 NCel=       1 NClECP=     1 NCelD=      1
         NCelK=      1 NCelE2=     1 NClLst=     1 CellRange=     0.0.
 One-electron integrals computed using PRISM.
 NBasis=   268 RedAO= T EigKep=  2.30D-06  NBF=   268
 NBsUse=   268 1.00D-06 EigRej= -1.00D+00 NBFU=   268
 Precomputing XC quadrature grid using
 IXCGrd= 4 IRadAn=           0 IRanWt=          -1 IRanGd=           0 AccXCQ= 0.00D+00.
 Generated NRdTot=       0 NPtTot=           0 NUsed=           0 NTot=          32
 NSgBfM=   278   278   278   278   278 MxSgAt=    18 MxSgA2=    18.
 Leave Link  302 at Wed Nov 17 23:28:28 2021, MaxMem=  6710886400 cpu:         3.5
 (Enter /usr/local/gqt/g09/l303.exe)
 DipDrv:  MaxL=1.
 Leave Link  303 at Wed Nov 17 23:28:28 2021, MaxMem=  6710886400 cpu:         0.6
 (Enter /usr/local/gqt/g09/l401.exe)
 ExpMin= 4.38D-02 ExpMax= 6.29D+03 ExpMxC= 9.49D+02 IAcc=2 IRadAn=         4 AccDes= 0.00D+00
 Harris functional with IExCor= 5547 and IRadAn=       4 diagonalized for initial guess.
 HarFok:  IExCor= 5547 AccDes= 0.00D+00 IRadAn=         4 IDoV= 1 UseB2=F ITyADJ=14
 ICtDFT=  3500011 ScaDFX=  1.000000  1.000000  1.000000  1.000000
 FoFCou: FMM=F IPFlag=           0 FMFlag=      100000 FMFlg1=           0
         NFxFlg=           0 DoJE=T BraDBF=F KetDBF=T FulRan=T
         wScrn=  0.000000 ICntrl=     500 IOpCl=  0 I1Cent=   200000004 NGrid=           0
         NMat0=    1 NMatS0=      1 NMatT0=    0 NMatD0=    1 NMtDS0=    0 NMtDT0=    0
 Petite list used in FoFCou.
 Harris En= -405.914225435998    
 JPrj=0 DoOrth=F DoCkMO=F.
 Leave Link  401 at Wed Nov 17 23:28:29 2021, MaxMem=  6710886400 cpu:         8.6
 (Enter /usr/local/gqt/g09/l502.exe)
 Closed shell SCF:
 Using DIIS extrapolation, IDIIS=  1040.
 Integral symmetry usage will be decided dynamically.
 Keep R1 ints in memory in canonical form, NReq=1310465756.
 IVT=      256914 IEndB=      256914 NGot=  6710886400 MDV=  5411279325
 LenX=  5411279325 LenY=  5411201600
 Requested convergence on RMS density matrix=1.00D-08 within 128 cycles.
 Requested convergence on MAX density matrix=1.00D-06.
 Requested convergence on             energy=1.00D-06.
 No special actions if energy rises.
 FoFCou: FMM=F IPFlag=           0 FMFlag=           0 FMFlg1=           0
         NFxFlg=           0 DoJE=F BraDBF=F KetDBF=F FulRan=T
         wScrn=  0.000000 ICntrl=     600 IOpCl=  0 I1Cent=           0 NGrid=           0
         NMat0=    1 NMatS0=  36046 NMatT0=    0 NMatD0=    1 NMtDS0=    0 NMtDT0=    0
 Symmetry not used in FoFCou.

 Cycle   1  Pass 1  IDiag  1:
 Inv3:  Mode=1 IEnd=     6615675.
 Iteration    1 A*A^-1 deviation from unit magnitude is 6.22D-15 for   1477.
 Iteration    1 A*A^-1 deviation from orthogonality  is 3.88D-15 for   1266    184.
 Iteration    1 A^-1*A deviation from unit magnitude is 5.66D-15 for   1482.
 Iteration    1 A^-1*A deviation from orthogonality  is 8.23D-13 for    857    814.
 E= -418.818716921717    
 DIIS: error= 5.99D-02 at cycle   1 NSaved=   1.
 NSaved= 1 IEnMin= 1 EnMin= -418.818716921717     IErMin= 1 ErrMin= 5.99D-02
 ErrMax= 5.99D-02  0.00D+00 EMaxC= 1.00D-01 BMatC= 1.10D+00 BMatP= 1.10D+00
 IDIUse=3 WtCom= 4.01D-01 WtEn= 5.99D-01
 Coeff-Com:  0.100D+01
 Coeff-En:   0.100D+01
 Coeff:      0.100D+01
 Gap=     0.169 Goal=   None    Shift=    0.000
 GapD=    0.169 DampG=1.000 DampE=0.500 DampFc=0.5000 IDamp=-1.
 Damping current iteration by 5.00D-01
 RMSDP=1.35D-02 MaxDP=8.49D-01              OVMax= 2.76D-01

 Cycle   2  Pass 1  IDiag  1:
 E= -418.872130806886     Delta-E=       -0.053413885169 Rises=F Damp=T
 DIIS: error= 2.74D-02 at cycle   2 NSaved=   2.
 NSaved= 2 IEnMin= 2 EnMin= -418.872130806886     IErMin= 2 ErrMin= 2.74D-02
 ErrMax= 2.74D-02  0.00D+00 EMaxC= 1.00D-01 BMatC= 2.30D-01 BMatP= 1.10D+00
 IDIUse=3 WtCom= 7.26D-01 WtEn= 2.74D-01
 Coeff-Com: -0.298D+00 0.130D+01
 Coeff-En:   0.328D+00 0.672D+00
 Coeff:     -0.126D+00 0.113D+01
 Gap=     0.199 Goal=   None    Shift=    0.000
 RMSDP=6.21D-03 MaxDP=3.14D-01 DE=-5.34D-02 OVMax= 2.74D-01

 Cycle   3  Pass 1  IDiag  1:
 E= -418.858363704968     Delta-E=        0.013767101918 Rises=F Damp=F
 DIIS: error= 2.95D-02 at cycle   3 NSaved=   3.
 NSaved= 3 IEnMin= 2 EnMin= -418.872130806886     IErMin= 2 ErrMin= 2.74D-02
 ErrMax= 2.95D-02  0.00D+00 EMaxC= 1.00D-01 BMatC= 1.67D-01 BMatP= 2.30D-01
 IDIUse=3 WtCom= 7.05D-01 WtEn= 2.95D-01
 Coeff-Com: -0.333D+00 0.753D+00 0.580D+00
 Coeff-En:   0.000D+00 0.535D+00 0.465D+00
 Coeff:     -0.235D+00 0.689D+00 0.546D+00
 Gap=     0.162 Goal=   None    Shift=    0.000
 RMSDP=2.43D-03 MaxDP=7.27D-02 DE= 1.38D-02 OVMax= 1.57D-01

 Cycle   4  Pass 1  IDiag  1:
 E= -419.009101880957     Delta-E=       -0.150738175989 Rises=F Damp=F
 DIIS: error= 7.15D-03 at cycle   4 NSaved=   4.
 NSaved= 4 IEnMin= 4 EnMin= -419.009101880957     IErMin= 4 ErrMin= 7.15D-03
 ErrMax= 7.15D-03  0.00D+00 EMaxC= 1.00D-01 BMatC= 6.67D-03 BMatP= 1.67D-01
 IDIUse=3 WtCom= 9.28D-01 WtEn= 7.15D-02
 Coeff-Com: -0.123D+00 0.284D+00 0.306D+00 0.533D+00
 Coeff-En:   0.000D+00 0.000D+00 0.000D+00 0.100D+01
 Coeff:     -0.114D+00 0.264D+00 0.284D+00 0.567D+00
 Gap=     0.147 Goal=   None    Shift=    0.000
 RMSDP=5.20D-04 MaxDP=2.92D-02 DE=-1.51D-01 OVMax= 4.43D-02

 Cycle   5  Pass 1  IDiag  1:
 E= -419.015467011324     Delta-E=       -0.006365130367 Rises=F Damp=F
 DIIS: error= 2.39D-03 at cycle   5 NSaved=   5.
 NSaved= 5 IEnMin= 5 EnMin= -419.015467011324     IErMin= 5 ErrMin= 2.39D-03
 ErrMax= 2.39D-03  0.00D+00 EMaxC= 1.00D-01 BMatC= 6.28D-04 BMatP= 6.67D-03
 IDIUse=3 WtCom= 9.76D-01 WtEn= 2.39D-02
 Coeff-Com:  0.111D-01-0.211D-01 0.233D-01 0.335D+00 0.652D+00
 Coeff-En:   0.000D+00 0.000D+00 0.000D+00 0.807D-01 0.919D+00
 Coeff:      0.108D-01-0.206D-01 0.228D-01 0.329D+00 0.658D+00
 Gap=     0.150 Goal=   None    Shift=    0.000
 RMSDP=2.31D-04 MaxDP=1.63D-02 DE=-6.37D-03 OVMax= 1.64D-02

 Cycle   6  Pass 1  IDiag  1:
 E= -419.016156044476     Delta-E=       -0.000689033152 Rises=F Damp=F
 DIIS: error= 4.28D-04 at cycle   6 NSaved=   6.
 NSaved= 6 IEnMin= 6 EnMin= -419.016156044476     IErMin= 6 ErrMin= 4.28D-04
 ErrMax= 4.28D-04  0.00D+00 EMaxC= 1.00D-01 BMatC= 3.47D-05 BMatP= 6.28D-04
 IDIUse=3 WtCom= 9.96D-01 WtEn= 4.28D-03
 Coeff-Com:  0.117D-01-0.245D-01-0.188D-02 0.156D+00 0.369D+00 0.489D+00
 Coeff-En:   0.000D+00 0.000D+00 0.000D+00 0.000D+00 0.000D+00 0.100D+01
 Coeff:      0.116D-01-0.244D-01-0.187D-02 0.155D+00 0.368D+00 0.491D+00
 Gap=     0.149 Goal=   None    Shift=    0.000
 RMSDP=4.29D-05 MaxDP=1.86D-03 DE=-6.89D-04 OVMax= 2.60D-03

 Cycle   7  Pass 1  IDiag  1:
 E= -419.016185723479     Delta-E=       -0.000029679002 Rises=F Damp=F
 DIIS: error= 1.51D-04 at cycle   7 NSaved=   7.
 NSaved= 7 IEnMin= 7 EnMin= -419.016185723479     IErMin= 7 ErrMin= 1.51D-04
 ErrMax= 1.51D-04  0.00D+00 EMaxC= 1.00D-01 BMatC= 3.13D-06 BMatP= 3.47D-05
 IDIUse=3 WtCom= 9.98D-01 WtEn= 1.51D-03
 Coeff-Com:  0.469D-02-0.991D-02-0.236D-02 0.524D-01 0.139D+00 0.274D+00
 Coeff-Com:  0.542D+00
 Coeff-En:   0.000D+00 0.000D+00 0.000D+00 0.000D+00 0.000D+00 0.000D+00
 Coeff-En:   0.100D+01
 Coeff:      0.468D-02-0.989D-02-0.235D-02 0.523D-01 0.139D+00 0.274D+00
 Coeff:      0.543D+00
 Gap=     0.149 Goal=   None    Shift=    0.000
 RMSDP=1.73D-05 MaxDP=1.30D-03 DE=-2.97D-05 OVMax= 7.52D-04

 Cycle   8  Pass 1  IDiag  1:
 E= -419.016188095690     Delta-E=       -0.000002372212 Rises=F Damp=F
 DIIS: error= 4.23D-05 at cycle   8 NSaved=   8.
 NSaved= 8 IEnMin= 8 EnMin= -419.016188095690     IErMin= 8 ErrMin= 4.23D-05
 ErrMax= 4.23D-05  0.00D+00 EMaxC= 1.00D-01 BMatC= 4.43D-07 BMatP= 3.13D-06
 IDIUse=1 WtCom= 1.00D+00 WtEn= 0.00D+00
 Coeff-Com:  0.103D-02-0.210D-02-0.840D-03 0.970D-02 0.320D-01 0.897D-01
 Coeff-Com:  0.317D+00 0.553D+00
 Coeff:      0.103D-02-0.210D-02-0.840D-03 0.970D-02 0.320D-01 0.897D-01
 Coeff:      0.317D+00 0.553D+00
 Gap=     0.149 Goal=   None    Shift=    0.000
 RMSDP=4.79D-06 MaxDP=1.81D-04 DE=-2.37D-06 OVMax= 2.63D-04

 Cycle   9  Pass 1  IDiag  1:
 E= -419.016188490846     Delta-E=       -0.000000395156 Rises=F Damp=F
 DIIS: error= 1.34D-05 at cycle   9 NSaved=   9.
 NSaved= 9 IEnMin= 9 EnMin= -419.016188490846     IErMin= 9 ErrMin= 1.34D-05
 ErrMax= 1.34D-05  0.00D+00 EMaxC= 1.00D-01 BMatC= 4.03D-08 BMatP= 4.43D-07
 IDIUse=1 WtCom= 1.00D+00 WtEn= 0.00D+00
 Coeff-Com:  0.163D-03-0.313D-03-0.358D-03-0.544D-04 0.403D-02 0.205D-01
 Coeff-Com:  0.117D+00 0.303D+00 0.556D+00
 Coeff:      0.163D-03-0.313D-03-0.358D-03-0.544D-04 0.403D-02 0.205D-01
 Coeff:      0.117D+00 0.303D+00 0.556D+00
 Gap=     0.149 Goal=   None    Shift=    0.000
 RMSDP=2.38D-06 MaxDP=7.16D-05 DE=-3.95D-07 OVMax= 9.81D-05

 Cycle  10  Pass 1  IDiag  1:
 E= -419.016188527685     Delta-E=       -0.000000036839 Rises=F Damp=F
 DIIS: error= 3.85D-06 at cycle  10 NSaved=  10.
 NSaved=10 IEnMin=10 EnMin= -419.016188527685     IErMin=10 ErrMin= 3.85D-06
 ErrMax= 3.85D-06  0.00D+00 EMaxC= 1.00D-01 BMatC= 3.91D-09 BMatP= 4.03D-08
 IDIUse=1 WtCom= 1.00D+00 WtEn= 0.00D+00
 Coeff-Com: -0.741D-04 0.159D-03-0.456D-04-0.143D-02-0.217D-02-0.155D-02
 Coeff-Com:  0.210D-01 0.917D-01 0.282D+00 0.611D+00
 Coeff:     -0.741D-04 0.159D-03-0.456D-04-0.143D-02-0.217D-02-0.155D-02
 Coeff:      0.210D-01 0.917D-01 0.282D+00 0.611D+00
 Gap=     0.149 Goal=   None    Shift=    0.000
 RMSDP=5.82D-07 MaxDP=3.11D-05 DE=-3.68D-08 OVMax= 2.81D-05

 Cycle  11  Pass 1  IDiag  1:
 E= -419.016188531547     Delta-E=       -0.000000003861 Rises=F Damp=F
 DIIS: error= 1.45D-06 at cycle  11 NSaved=  11.
 NSaved=11 IEnMin=11 EnMin= -419.016188531547     IErMin=11 ErrMin= 1.45D-06
 ErrMax= 1.45D-06  0.00D+00 EMaxC= 1.00D-01 BMatC= 2.96D-10 BMatP= 3.91D-09
 IDIUse=1 WtCom= 1.00D+00 WtEn= 0.00D+00
 Coeff-Com: -0.411D-04 0.825D-04 0.115D-04-0.579D-03-0.117D-02-0.286D-02
 Coeff-Com: -0.380D-02 0.370D-02 0.413D-01 0.241D+00 0.722D+00
 Coeff:     -0.411D-04 0.825D-04 0.115D-04-0.579D-03-0.117D-02-0.286D-02
 Coeff:     -0.380D-02 0.370D-02 0.413D-01 0.241D+00 0.722D+00
 Gap=     0.149 Goal=   None    Shift=    0.000
 RMSDP=1.88D-07 MaxDP=1.35D-05 DE=-3.86D-09 OVMax= 1.09D-05

 Cycle  12  Pass 1  IDiag  1:
 E= -419.016188531804     Delta-E=       -0.000000000257 Rises=F Damp=F
 DIIS: error= 1.05D-06 at cycle  12 NSaved=  12.
 NSaved=12 IEnMin=12 EnMin= -419.016188531804     IErMin=12 ErrMin= 1.05D-06
 ErrMax= 1.05D-06  0.00D+00 EMaxC= 1.00D-01 BMatC= 7.60D-11 BMatP= 2.96D-10
 IDIUse=1 WtCom= 1.00D+00 WtEn= 0.00D+00
 Coeff-Com: -0.134D-04 0.258D-04 0.906D-05-0.163D-03-0.351D-03-0.131D-02
 Coeff-Com: -0.394D-02-0.734D-02-0.794D-02 0.739D-01 0.437D+00 0.510D+00
 Coeff:     -0.134D-04 0.258D-04 0.906D-05-0.163D-03-0.351D-03-0.131D-02
 Coeff:     -0.394D-02-0.734D-02-0.794D-02 0.739D-01 0.437D+00 0.510D+00
 Gap=     0.149 Goal=   None    Shift=    0.000
 RMSDP=5.90D-08 MaxDP=2.20D-06 DE=-2.57D-10 OVMax= 4.05D-06

 Cycle  13  Pass 1  IDiag  1:
 E= -419.016188531887     Delta-E=       -0.000000000084 Rises=F Damp=F
 DIIS: error= 1.30D-07 at cycle  13 NSaved=  13.
 NSaved=13 IEnMin=13 EnMin= -419.016188531887     IErMin=13 ErrMin= 1.30D-07
 ErrMax= 1.30D-07  0.00D+00 EMaxC= 1.00D-01 BMatC= 2.36D-12 BMatP= 7.60D-11
 IDIUse=1 WtCom= 1.00D+00 WtEn= 0.00D+00
 Coeff-Com: -0.296D-05 0.554D-05 0.225D-05-0.314D-04-0.631D-04-0.328D-03
 Coeff-Com: -0.132D-02-0.323D-02-0.579D-02 0.127D-01 0.132D+00 0.212D+00
 Coeff-Com:  0.654D+00
 Coeff:     -0.296D-05 0.554D-05 0.225D-05-0.314D-04-0.631D-04-0.328D-03
 Coeff:     -0.132D-02-0.323D-02-0.579D-02 0.127D-01 0.132D+00 0.212D+00
 Coeff:      0.654D+00
 Gap=     0.149 Goal=   None    Shift=    0.000
 RMSDP=1.97D-08 MaxDP=2.08D-06 DE=-8.36D-11 OVMax= 7.69D-07

 Cycle  14  Pass 1  IDiag  1:
 E= -419.016188531900     Delta-E=       -0.000000000012 Rises=F Damp=F
 DIIS: error= 2.87D-08 at cycle  14 NSaved=  14.
 NSaved=14 IEnMin=14 EnMin= -419.016188531900     IErMin=14 ErrMin= 2.87D-08
 ErrMax= 2.87D-08  0.00D+00 EMaxC= 1.00D-01 BMatC= 3.36D-13 BMatP= 2.36D-12
 IDIUse=1 WtCom= 1.00D+00 WtEn= 0.00D+00
 Coeff-Com: -0.432D-06 0.804D-06 0.221D-06-0.722D-06 0.869D-06-0.237D-04
 Coeff-Com: -0.213D-03-0.735D-03-0.151D-02-0.277D-02 0.119D-01 0.391D-01
 Coeff-Com:  0.307D+00 0.648D+00
 Coeff:     -0.432D-06 0.804D-06 0.221D-06-0.722D-06 0.869D-06-0.237D-04
 Coeff:     -0.213D-03-0.735D-03-0.151D-02-0.277D-02 0.119D-01 0.391D-01
 Coeff:      0.307D+00 0.648D+00
 Gap=     0.149 Goal=   None    Shift=    0.000
 RMSDP=5.68D-09 MaxDP=3.49D-07 DE=-1.24D-11 OVMax= 1.69D-07

 Error on total polarization charges =  0.01899
 SCF Done:  E(RN12SX) =  -419.016188532     A.U. after   14 cycles
            NFock= 14  Conv=0.57D-08     -V/T= 2.0059
 KE= 4.165528294653D+02 PE=-1.967198911453D+03 EE= 6.343187855629D+02
 Leave Link  502 at Wed Nov 17 23:28:58 2021, MaxMem=  6710886400 cpu:       375.4
 (Enter /usr/local/gqt/g09/l601.exe)
 Copying SCF densities to generalized density rwf, IOpCl= 0 IROHF=0.

 **********************************************************************

            Population analysis using the SCF density.

 **********************************************************************

 Orbital symmetries:
       Occupied  (A) (A) (A) (A) (A) (A) (A) (A) (A) (A) (A) (A)
                 (A) (A) (A) (A) (A) (A) (A) (A) (A) (A) (A) (A)
                 (A) (A) (A) (A) (A) (A) (A) (A) (A) (A) (A)
       Virtual   (A) (A) (A) (A) (A) (A) (A) (A) (A) (A) (A) (A)
                 (A) (A) (A) (A) (A) (A) (A) (A) (A) (A) (A) (A)
                 (A) (A) (A) (A) (A) (A) (A) (A) (A) (A) (A) (A)
                 (A) (A) (A) (A) (A) (A) (A) (A) (A) (A) (A) (A)
                 (A) (A) (A) (A) (A) (A) (A) (A) (A) (A) (A) (A)
                 (A) (A) (A) (A) (A) (A) (A) (A) (A) (A) (A) (A)
                 (A) (A) (A) (A) (A) (A) (A) (A) (A) (A) (A) (A)
                 (A) (A) (A) (A) (A) (A) (A) (A) (A) (A) (A) (A)
                 (A) (A) (A) (A) (A) (A) (A) (A) (A) (A) (A) (A)
                 (A) (A) (A) (A) (A) (A) (A) (A) (A) (A) (A) (A)
                 (A) (A) (A) (A) (A) (A) (A) (A) (A) (A) (A) (A)
                 (A) (A) (A) (A) (A) (A) (A) (A) (A) (A) (A) (A)
                 (A) (A) (A) (A) (A) (A) (A) (A) (A) (A) (A) (A)
                 (A) (A) (A) (A) (A) (A) (A) (A) (A) (A) (A) (A)
                 (A) (A) (A) (A) (A) (A) (A) (A) (A) (A) (A) (A)
                 (A) (A) (A) (A) (A) (A) (A) (A) (A) (A) (A) (A)
                 (A) (A) (A) (A) (A) (A) (A) (A) (A) (A) (A) (A)
                 (A) (A) (A) (A) (A) (A) (A) (A) (A) (A) (A) (A)
                 (A) (A) (A) (A) (A) (A) (A) (A) (A) (A) (A) (A)
                 (A) (A) (A) (A) (A)
 The electronic state is 1-A.
 Alpha  occ. eigenvalues --  -14.44543 -14.43164 -10.31399 -10.27770 -10.26268
 Alpha  occ. eigenvalues --  -10.25001 -10.24918 -10.24007 -10.23884 -10.20250
 Alpha  occ. eigenvalues --   -1.05732  -0.95469  -0.85032  -0.79266  -0.76057
 Alpha  occ. eigenvalues --   -0.71531  -0.65387  -0.62353  -0.61801  -0.53197
 Alpha  occ. eigenvalues --   -0.51017  -0.49782  -0.49325  -0.47202  -0.46775
 Alpha  occ. eigenvalues --   -0.43719  -0.41433  -0.40645  -0.39298  -0.37608
 Alpha  occ. eigenvalues --   -0.34979  -0.32768  -0.25662  -0.21255  -0.21122
 Alpha virt. eigenvalues --   -0.06197  -0.02027  -0.00542   0.00669   0.01334
 Alpha virt. eigenvalues --    0.02555   0.02794   0.02938   0.03051   0.03797
 Alpha virt. eigenvalues --    0.05478   0.05783   0.05956   0.06440   0.06815
 Alpha virt. eigenvalues --    0.09210   0.09419   0.09535   0.09825   0.10577
 Alpha virt. eigenvalues --    0.11104   0.12368   0.12714   0.13566   0.13939
 Alpha virt. eigenvalues --    0.14659   0.15159   0.15607   0.15979   0.17228
 Alpha virt. eigenvalues --    0.17380   0.17495   0.18073   0.19002   0.19786
 Alpha virt. eigenvalues --    0.19879   0.20322   0.20545   0.21156   0.22227
 Alpha virt. eigenvalues --    0.22628   0.22957   0.23058   0.23966   0.24399
 Alpha virt. eigenvalues --    0.24889   0.25157   0.26250   0.27138   0.27859
 Alpha virt. eigenvalues --    0.28783   0.29546   0.30151   0.32098   0.32779
 Alpha virt. eigenvalues --    0.34174   0.37697   0.38665   0.39413   0.42455
 Alpha virt. eigenvalues --    0.43113   0.45804   0.48080   0.48632   0.50164
 Alpha virt. eigenvalues --    0.51536   0.52735   0.53643   0.53683   0.55902
 Alpha virt. eigenvalues --    0.56143   0.56739   0.57978   0.60204   0.60247
 Alpha virt. eigenvalues --    0.60553   0.62554   0.63793   0.65619   0.65912
 Alpha virt. eigenvalues --    0.66840   0.67769   0.69316   0.69926   0.72851
 Alpha virt. eigenvalues --    0.73259   0.74340   0.75659   0.77786   0.79548
 Alpha virt. eigenvalues --    0.80782   0.82008   0.83508   0.84251   0.84951
 Alpha virt. eigenvalues --    0.86984   0.87220   0.89346   0.90623   0.92539
 Alpha virt. eigenvalues --    0.94462   0.97022   0.99716   1.00839   1.01793
 Alpha virt. eigenvalues --    1.04319   1.04734   1.06780   1.07822   1.11121
 Alpha virt. eigenvalues --    1.12382   1.14627   1.17978   1.19618   1.22075
 Alpha virt. eigenvalues --    1.25077   1.28155   1.35692   1.40437   1.42041
 Alpha virt. eigenvalues --    1.44629   1.45102   1.47443   1.50209   1.52747
 Alpha virt. eigenvalues --    1.54163   1.54530   1.55090   1.57521   1.58862
 Alpha virt. eigenvalues --    1.59962   1.62137   1.63236   1.65698   1.67114
 Alpha virt. eigenvalues --    1.69146   1.70844   1.73299   1.73651   1.76806
 Alpha virt. eigenvalues --    1.78008   1.79514   1.83182   1.83642   1.86548
 Alpha virt. eigenvalues --    1.87922   1.89539   1.91115   1.92307   1.94219
 Alpha virt. eigenvalues --    1.97846   1.98499   2.00660   2.04574   2.05598
 Alpha virt. eigenvalues --    2.06756   2.10355   2.12456   2.13512   2.19172
 Alpha virt. eigenvalues --    2.20117   2.26607   2.27491   2.34619   2.38894
 Alpha virt. eigenvalues --    2.41307   2.43564   2.44489   2.46099   2.48387
 Alpha virt. eigenvalues --    2.50349   2.50422   2.51876   2.55227   2.59495
 Alpha virt. eigenvalues --    2.63410   2.63961   2.66849   2.68818   2.69106
 Alpha virt. eigenvalues --    2.70044   2.72781   2.73213   2.75801   2.77069
 Alpha virt. eigenvalues --    2.80619   2.81736   2.82840   2.83515   2.85310
 Alpha virt. eigenvalues --    2.87924   2.90417   2.91080   2.95370   2.97250
 Alpha virt. eigenvalues --    2.99169   3.04155   3.05445   3.11405   3.22156
 Alpha virt. eigenvalues --    3.36327   3.39607   3.46300   3.47684   3.54184
 Alpha virt. eigenvalues --    3.58596   3.64500   3.66833   3.74374   3.75341
 Alpha virt. eigenvalues --    3.79400   3.83125   3.84935   3.91257   3.98294
 Alpha virt. eigenvalues --    4.02266   4.04890   4.13050   4.39055   4.80759
 Alpha virt. eigenvalues --    4.98800   5.11347   5.23854  23.53610  23.66721
 Alpha virt. eigenvalues --   23.78392  23.83664  23.88905  24.03250  24.04453
 Alpha virt. eigenvalues --   24.07799  35.30926  35.44947
          Condensed to atoms (all electrons):
               1          2          3          4          5          6
     1  N    7.184874   0.569395  -0.496885   0.420858  -0.068079  -0.365376
     2  C    0.569395   7.313343   0.127651   0.190787  -0.129710  -1.753919
     3  N   -0.496885   0.127651   7.172030  -0.078420   0.190004  -0.071871
     4  C    0.420858   0.190787  -0.078420   7.332603  -0.249249  -0.289992
     5  C   -0.068079  -0.129710   0.190004  -0.249249   5.717719   0.002534
     6  C   -0.365376  -1.753919  -0.071871  -0.289992   0.002534   8.019085
     7  C   -0.046534   0.361748  -0.104353  -0.091448   0.038567  -0.160896
     8  C    0.025162  -0.044851  -0.056882   0.103507  -0.084551  -0.088027
     9  C   -0.133518  -0.255774   0.264464  -0.722818   0.234511   0.180236
    10  C    0.258143  -0.309807  -0.087574   0.009964  -0.146202   0.124321
    11  H   -0.118621   0.028375   0.046187  -0.081218   0.501113   0.000128
    12  H   -0.021674   0.085718   0.018210   0.004090  -0.001307   0.325135
    13  H   -0.001565   0.027653   0.003602   0.001594  -0.001140  -0.046152
    14  H    0.000172   0.009109   0.018113   0.000991   0.001503  -0.029786
    15  H   -0.003463   0.013526  -0.046495  -0.001355   0.006692   0.007583
    16  H   -0.038684   0.045288   0.002393   0.009330  -0.009639  -0.042179
    17  H   -0.037582  -0.033540  -0.001167  -0.008574   0.006448   0.014590
    18  H   -0.036833  -0.035911  -0.001121  -0.009647   0.005471   0.016129
               7          8          9         10         11         12
     1  N   -0.046534   0.025162  -0.133518   0.258143  -0.118621  -0.021674
     2  C    0.361748  -0.044851  -0.255774  -0.309807   0.028375   0.085718
     3  N   -0.104353  -0.056882   0.264464  -0.087574   0.046187   0.018210
     4  C   -0.091448   0.103507  -0.722818   0.009964  -0.081218   0.004090
     5  C    0.038567  -0.084551   0.234511  -0.146202   0.501113  -0.001307
     6  C   -0.160896  -0.088027   0.180236   0.124321   0.000128   0.325135
     7  C    5.747397   0.277762   0.081886  -0.015789   0.000159  -0.023814
     8  C    0.277762   5.346442   0.314698   0.017342   0.001119  -0.018000
     9  C    0.081886   0.314698   5.592336  -0.037365   0.011615  -0.001115
    10  C   -0.015789   0.017342  -0.037365   5.254398  -0.032066  -0.005178
    11  H    0.000159   0.001119   0.011615  -0.032066   0.489913  -0.000032
    12  H   -0.023814  -0.018000  -0.001115  -0.005178  -0.000032   0.476305
    13  H    0.406790   0.000412  -0.026473   0.000428  -0.000001  -0.005803
    14  H   -0.021076   0.426012  -0.035104  -0.000025  -0.000001  -0.000106
    15  H   -0.013719  -0.016211   0.415557   0.000157  -0.000003   0.000039
    16  H    0.017690   0.000693  -0.001261   0.387562  -0.000207   0.004732
    17  H   -0.000297  -0.000098  -0.000523   0.433934   0.000368   0.000029
    18  H   -0.001247  -0.000039  -0.000658   0.437250   0.000325   0.000015
              13         14         15         16         17         18
     1  N   -0.001565   0.000172  -0.003463  -0.038684  -0.037582  -0.036833
     2  C    0.027653   0.009109   0.013526   0.045288  -0.033540  -0.035911
     3  N    0.003602   0.018113  -0.046495   0.002393  -0.001167  -0.001121
     4  C    0.001594   0.000991  -0.001355   0.009330  -0.008574  -0.009647
     5  C   -0.001140   0.001503   0.006692  -0.009639   0.006448   0.005471
     6  C   -0.046152  -0.029786   0.007583  -0.042179   0.014590   0.016129
     7  C    0.406790  -0.021076  -0.013719   0.017690  -0.000297  -0.001247
     8  C    0.000412   0.426012  -0.016211   0.000693  -0.000098  -0.000039
     9  C   -0.026473  -0.035104   0.415557  -0.001261  -0.000523  -0.000658
    10  C    0.000428  -0.000025   0.000157   0.387562   0.433934   0.437250
    11  H   -0.000001  -0.000001  -0.000003  -0.000207   0.000368   0.000325
    12  H   -0.005803  -0.000106   0.000039   0.004732   0.000029   0.000015
    13  H    0.470690  -0.006408  -0.000101   0.000018  -0.000001  -0.000001
    14  H   -0.006408   0.470691  -0.006695  -0.000001   0.000000   0.000000
    15  H   -0.000101  -0.006695   0.467178   0.000001  -0.000001  -0.000001
    16  H    0.000018  -0.000001   0.000001   0.486962  -0.019659  -0.019671
    17  H   -0.000001   0.000000  -0.000001  -0.019659   0.481368  -0.035824
    18  H   -0.000001   0.000000  -0.000001  -0.019671  -0.035824   0.479413
 Mulliken charges:
               1
     1  N   -0.089787
     2  C   -0.209082
     3  N    0.102113
     4  C   -0.541003
     5  C   -0.014684
     6  C    0.158458
     7  C   -0.452827
     8  C   -0.204489
     9  C    0.119307
    10  C   -0.289494
    11  H    0.152846
    12  H    0.162758
    13  H    0.176457
    14  H    0.172610
    15  H    0.177311
    16  H    0.176630
    17  H    0.200527
    18  H    0.202350
 Sum of Mulliken charges =   0.00000
 Mulliken charges with hydrogens summed into heavy atoms:
               1
     1  N   -0.089787
     2  C   -0.209082
     3  N    0.102113
     4  C   -0.541003
     5  C    0.138162
     6  C    0.321216
     7  C   -0.276370
     8  C   -0.031879
     9  C    0.296618
    10  C    0.290013
 Electronic spatial extent (au):  <R**2>=           1260.5975
 Charge=              0.0000 electrons
 Dipole moment (field-independent basis, Debye):
    X=             -0.2867    Y=             -8.1582    Z=              0.0007  Tot=              8.1632
 Quadrupole moment (field-independent basis, Debye-Ang):
   XX=            -41.3141   YY=            -68.3321   ZZ=            -62.6405
   XY=             -6.8471   XZ=             -0.0042   YZ=              0.0034
 Traceless Quadrupole moment (field-independent basis, Debye-Ang):
   XX=             16.1148   YY=            -10.9032   ZZ=             -5.2116
   XY=             -6.8471   XZ=             -0.0042   YZ=              0.0034
 Octapole moment (field-independent basis, Debye-Ang**2):
  XXX=              5.6798  YYY=            -76.7229  ZZZ=              0.0457  XYY=            -13.1878
  XXY=            -10.9754  XXZ=             -0.0411  XZZ=              5.0579  YZZ=             -6.8168
  YYZ=             -0.0301  XYZ=             -0.0298
 Hexadecapole moment (field-independent basis, Debye-Ang**3):
 XXXX=           -899.3661 YYYY=           -717.1806 ZZZZ=            -78.9630 XXXY=            -18.1316
 XXXZ=             -0.2929 YYYX=            -47.4651 YYYZ=              0.1263 ZZZX=              0.1237
 ZZZY=             -0.0652 XXYY=           -245.0683 XXZZ=           -203.3959 YYZZ=           -129.5877
 XXYZ=             -0.0533 YYXZ=             -0.0122 ZZXY=            -11.5326
 N-N= 4.973111078928D+02 E-N=-1.967198919427D+03  KE= 4.165528294653D+02
 No NMR shielding tensors so no spin-rotation constants.
 Leave Link  601 at Wed Nov 17 23:28:59 2021, MaxMem=  6710886400 cpu:         1.8
 (Enter /usr/local/gqt/g09/l701.exe)
 Compute integral first derivatives.
 ... and contract with generalized density number  0.
 D1PCM: PCM CHGder 1st derivatives, ID1Alg=3 FixD1E=F DoIter=F DoCFld=F I1PDM=0.
 GePol: Maximum number of non-zero 1st derivatives   =     239
 Leave Link  701 at Wed Nov 17 23:28:59 2021, MaxMem=  6710886400 cpu:        12.9
 (Enter /usr/local/gqt/g09/l702.exe)
 L702 exits ... SP integral derivatives will be done elsewhere.
 Leave Link  702 at Wed Nov 17 23:28:59 2021, MaxMem=  6710886400 cpu:         0.3
 (Enter /usr/local/gqt/g09/l703.exe)
 Compute integral first derivatives, UseDBF=F ICtDFT=           0.
 Integral derivatives from FoFJK, PRISM(SPDF).
 Calling FoFJK, ICntrl=      2127 FMM=F ISym2X=0 I1Cent= 0 IOpClX= 0 NMat=1 NMatS=1 NMatT=0.
 FoFJK:  IHMeth= 1 ICntrl=    2127 DoSepK=T KAlg= 0 I1Cent=   0 FoldK=F
 IRaf=         1 NMat=   1 IRICut=       1 DoRegI=T DoRafI=F ISym2E= 0.
 FoFCou: FMM=F IPFlag=           0 FMFlag=      100000 FMFlg1=         800
         NFxFlg=           0 DoJE=F BraDBF=F KetDBF=F FulRan=T
         wScrn=  0.000000 ICntrl=    2527 IOpCl=  0 I1Cent=           0 NGrid=           0
         NMat0=    1 NMatS0=      1 NMatT0=    0 NMatD0=    1 NMtDS0=    0 NMtDT0=    0
 Symmetry not used in FoFCou.
 Leave Link  703 at Wed Nov 17 23:29:11 2021, MaxMem=  6710886400 cpu:       188.3
 (Enter /usr/local/gqt/g09/l716.exe)
 Dipole        =-1.12777866D-01-3.20967125D+00 2.81474869D-04
 ***** Axes restored to original set *****
 -------------------------------------------------------------------
 Center     Atomic                   Forces (Hartrees/Bohr)
 Number     Number              X              Y              Z
 -------------------------------------------------------------------
      1        7           0.000011706   -0.000038167   -0.000009054
      2        6          -0.000019707    0.000024355    0.000063028
      3        7           0.000100688   -0.000020562    0.000001665
      4        6          -0.000055124    0.000039704   -0.000011185
      5        6           0.000000173    0.000039405    0.000012500
      6        6          -0.000014830   -0.000037026   -0.000053855
      7        6           0.000045328    0.000030519    0.000026355
      8        6           0.000005957   -0.000024617   -0.000017735
      9        6          -0.000068680    0.000012015   -0.000003087
     10        6           0.000000206   -0.000004711   -0.000010224
     11        1          -0.000028047   -0.000015891   -0.000005108
     12        1           0.000016513   -0.000006337    0.000009700
     13        1          -0.000001376   -0.000003383   -0.000020848
     14        1           0.000004192    0.000026694    0.000010968
     15        1           0.000000444    0.000017525    0.000000630
     16        1           0.000010912   -0.000017607    0.000018712
     17        1          -0.000006223   -0.000021212   -0.000015712
     18        1          -0.000002132   -0.000000704    0.000003252
 -------------------------------------------------------------------
 Cartesian Forces:  Max     0.000100688 RMS     0.000028013
 Leave Link  716 at Wed Nov 17 23:29:11 2021, MaxMem=  6710886400 cpu:         0.3
 (Enter /usr/local/gqt/g09/l103.exe)

 GradGradGradGradGradGradGradGradGradGradGradGradGradGradGradGradGradGrad
 Berny optimization.
 FormGI is forming the generalized inverse of G from B-inverse, IUseBI=4.
 Internal  Forces:  Max     0.000067232 RMS     0.000014444
 Search for a local minimum.
 Step number   1 out of a maximum of  102
 All quantities printed in internal units (Hartrees-Bohrs-Radians)
 RMS Force = .14444D-04 SwitMx=.10000D-02 MixMth= 2
 Mixed Optimization -- En-DIIS/RFO-DIIS
 Second derivative matrix not updated -- first step.
 ITU=  0
     Eigenvalues ---    0.01096   0.01672   0.01930   0.02026   0.02062
     Eigenvalues ---    0.02136   0.02192   0.02218   0.02278   0.02288
     Eigenvalues ---    0.02346   0.02407   0.02471   0.07604   0.07623
     Eigenvalues ---    0.16000   0.16000   0.16000   0.16000   0.16000
     Eigenvalues ---    0.16000   0.16000   0.16000   0.22000   0.22588
     Eigenvalues ---    0.23670   0.24526   0.25000   0.25000   0.35201
     Eigenvalues ---    0.35217   0.35586   0.36160   0.36291   0.36317
     Eigenvalues ---    0.36401   0.36496   0.38899   0.39154   0.41560
     Eigenvalues ---    0.43935   0.44165   0.46964   0.48638   0.49995
     Eigenvalues ---    0.51899   0.52473   0.56034
 RFO step:  Lambda=-1.95070607D-07 EMin= 1.09565904D-02
 Linear search not attempted -- first point.
 Iteration  1 RMS(Cart)=  0.00048153 RMS(Int)=  0.00000024
 Iteration  2 RMS(Cart)=  0.00000025 RMS(Int)=  0.00000002
 ITry= 1 IFail=0 DXMaxC= 2.61D-03 DCOld= 1.00D+10 DXMaxT= 3.00D-01 DXLimC= 3.00D+00 Rises=F
 Variable       Old X    -DE/DX   Delta X   Delta X   Delta X     New X
                                 (Linear)    (Quad)   (Total)
    R1        2.52579  -0.00002   0.00000  -0.00003  -0.00003   2.52576
    R2        2.62957  -0.00004   0.00000  -0.00009  -0.00009   2.62948
    R3        2.73078  -0.00002   0.00000  -0.00005  -0.00005   2.73072
    R4        2.59990  -0.00002   0.00000  -0.00004  -0.00004   2.59986
    R5        2.64027  -0.00004   0.00000  -0.00009  -0.00009   2.64018
    R6        2.66747  -0.00007   0.00000  -0.00015  -0.00015   2.66731
    R7        2.57177   0.00003   0.00000   0.00007   0.00007   2.57183
    R8        2.58652  -0.00001   0.00000  -0.00001  -0.00001   2.58651
    R9        2.03313  -0.00002   0.00000  -0.00006  -0.00006   2.03307
   R10        2.58644  -0.00003   0.00000  -0.00007  -0.00007   2.58637
   R11        2.03628  -0.00001   0.00000  -0.00002  -0.00002   2.03627
   R12        2.66670   0.00000   0.00000  -0.00001  -0.00001   2.66669
   R13        2.03832   0.00000   0.00000  -0.00001  -0.00001   2.03831
   R14        2.56836  -0.00003   0.00000  -0.00005  -0.00005   2.56831
   R15        2.03589  -0.00001   0.00000  -0.00003  -0.00003   2.03586
   R16        2.03459  -0.00001   0.00000  -0.00004  -0.00004   2.03455
   R17        2.04734  -0.00001   0.00000  -0.00003  -0.00003   2.04731
   R18        2.05325  -0.00002   0.00000  -0.00006  -0.00006   2.05319
   R19        2.05349  -0.00001   0.00000  -0.00002  -0.00002   2.05348
    A1        1.87610   0.00000   0.00000   0.00000   0.00000   1.87610
    A2        2.21095  -0.00001   0.00000  -0.00004  -0.00004   2.21091
    A3        2.19613   0.00001   0.00000   0.00005   0.00005   2.19617
    A4        1.85469   0.00000   0.00000  -0.00002  -0.00002   1.85467
    A5        2.31073   0.00000   0.00000   0.00000   0.00000   2.31073
    A6        2.11777   0.00001   0.00000   0.00002   0.00002   2.11779
    A7        1.96952   0.00001   0.00000   0.00002   0.00002   1.96954
    A8        2.09493  -0.00001   0.00000  -0.00003  -0.00003   2.09490
    A9        2.21874   0.00000   0.00000   0.00001   0.00001   2.21875
   A10        1.75681   0.00000   0.00000   0.00000   0.00000   1.75681
   A11        1.96766   0.00000   0.00000  -0.00001  -0.00001   1.96765
   A12        2.06432   0.00001   0.00000   0.00007   0.00007   2.06439
   A13        2.25120  -0.00001   0.00000  -0.00006  -0.00006   2.25114
   A14        2.05679   0.00001   0.00000   0.00002   0.00002   2.05681
   A15        2.10337  -0.00002   0.00000  -0.00008  -0.00008   2.10328
   A16        2.12303   0.00001   0.00000   0.00006   0.00006   2.12310
   A17        2.10241   0.00000   0.00000   0.00000   0.00000   2.10242
   A18        2.09055   0.00001   0.00000   0.00008   0.00008   2.09063
   A19        2.09023  -0.00002   0.00000  -0.00009  -0.00009   2.09014
   A20        2.09360   0.00000   0.00000  -0.00001  -0.00001   2.09359
   A21        2.10676  -0.00001   0.00000  -0.00007  -0.00007   2.10669
   A22        2.08282   0.00001   0.00000   0.00008   0.00008   2.08290
   A23        2.10088   0.00000   0.00000   0.00000   0.00000   2.10087
   A24        2.01044   0.00000   0.00000  -0.00004  -0.00004   2.01040
   A25        2.17187   0.00001   0.00000   0.00005   0.00005   2.17192
   A26        1.92121  -0.00001   0.00000  -0.00004  -0.00004   1.92117
   A27        1.91923  -0.00002   0.00000  -0.00012  -0.00012   1.91911
   A28        1.92058   0.00001   0.00000   0.00011   0.00011   1.92070
   A29        1.89772   0.00000   0.00000  -0.00003  -0.00003   1.89768
   A30        1.89825   0.00000   0.00000   0.00006   0.00006   1.89831
   A31        1.90651   0.00000   0.00000   0.00002   0.00002   1.90653
    D1        0.00054   0.00000   0.00000   0.00003   0.00003   0.00057
    D2        3.14097   0.00002   0.00000   0.00076   0.00076  -3.14145
    D3        3.13895   0.00000   0.00000  -0.00006  -0.00006   3.13889
    D4       -0.00381   0.00002   0.00000   0.00067   0.00067  -0.00314
    D5       -0.00056   0.00000   0.00000  -0.00005  -0.00005  -0.00061
    D6        3.14159   0.00000   0.00000  -0.00019  -0.00019   3.14140
    D7       -3.13901   0.00000   0.00000   0.00005   0.00005  -3.13896
    D8        0.00314   0.00000   0.00000  -0.00010  -0.00010   0.00304
    D9        0.02137   0.00002   0.00000   0.00113   0.00113   0.02250
   D10        2.11176   0.00001   0.00000   0.00099   0.00099   2.11275
   D11       -2.07054   0.00001   0.00000   0.00100   0.00100  -2.06954
   D12       -3.12397   0.00002   0.00000   0.00102   0.00102  -3.12295
   D13       -1.03357   0.00001   0.00000   0.00088   0.00088  -1.03270
   D14        1.06731   0.00001   0.00000   0.00089   0.00089   1.06820
   D15       -0.00037   0.00000   0.00000  -0.00001  -0.00001  -0.00038
   D16        3.14074   0.00000   0.00000   0.00019   0.00019   3.14093
   D17       -3.14096  -0.00001   0.00000  -0.00064  -0.00064   3.14159
   D18        0.00015  -0.00001   0.00000  -0.00044  -0.00044  -0.00029
   D19       -3.14033  -0.00001   0.00000  -0.00040  -0.00040  -3.14073
   D20        0.00167  -0.00001   0.00000  -0.00057  -0.00057   0.00110
   D21       -0.00004   0.00001   0.00000   0.00042   0.00042   0.00038
   D22       -3.14123   0.00001   0.00000   0.00025   0.00025  -3.14098
   D23        0.00003   0.00000   0.00000  -0.00002  -0.00002   0.00002
   D24       -3.14103  -0.00001   0.00000  -0.00024  -0.00024  -3.14127
   D25       -0.00014   0.00000   0.00000   0.00018   0.00018   0.00004
   D26        3.14151   0.00000   0.00000   0.00013   0.00013  -3.14154
   D27        3.14090   0.00001   0.00000   0.00042   0.00042   3.14131
   D28       -0.00064   0.00001   0.00000   0.00037   0.00037  -0.00027
   D29        0.00031   0.00000   0.00000   0.00004   0.00004   0.00035
   D30        3.14127   0.00000   0.00000   0.00021   0.00021   3.14148
   D31       -0.00007   0.00000   0.00000  -0.00016  -0.00016  -0.00023
   D32        3.14117   0.00000   0.00000   0.00023   0.00023   3.14140
   D33        3.14111   0.00000   0.00000   0.00002   0.00002   3.14113
   D34       -0.00083   0.00001   0.00000   0.00041   0.00041  -0.00042
   D35        0.00009   0.00000   0.00000  -0.00009  -0.00009   0.00000
   D36       -3.14126   0.00000   0.00000  -0.00014  -0.00014  -3.14140
   D37       -3.14116  -0.00001   0.00000  -0.00048  -0.00048   3.14155
   D38        0.00068  -0.00001   0.00000  -0.00053  -0.00053   0.00015
   D39        0.00002   0.00000   0.00000   0.00008   0.00008   0.00010
   D40        3.14155   0.00000   0.00000   0.00013   0.00013  -3.14150
   D41        3.14137   0.00000   0.00000   0.00013   0.00013   3.14150
   D42       -0.00028   0.00000   0.00000   0.00018   0.00018  -0.00010
         Item               Value     Threshold  Converged?
 Maximum Force            0.000067     0.000450     YES
 RMS     Force            0.000014     0.000300     YES
 Maximum Displacement     0.002611     0.001800     NO 
 RMS     Displacement     0.000482     0.001200     YES
 Predicted change in Energy=-9.753538D-08
 Lowest energy point so far.  Saving SCF results.
 GradGradGradGradGradGradGradGradGradGradGradGradGradGradGradGradGradGrad

 Leave Link  103 at Wed Nov 17 23:29:11 2021, MaxMem=  6710886400 cpu:         0.9
 (Enter /usr/local/gqt/g09/l202.exe)
                          Input orientation:                          
 ---------------------------------------------------------------------
 Center     Atomic      Atomic             Coordinates (Angstroms)
 Number     Number       Type             X           Y           Z
 ---------------------------------------------------------------------
      1          7           0        0.049791    0.186919   -0.016345
      2          6           0       -1.286514    0.161342   -0.008141
      3          7           0       -1.646374   -1.166379    0.013148
      4          6           0       -0.534281   -2.035572    0.018689
      5          6           0        0.493461   -1.131820   -0.000655
      6          6           0       -2.248148    1.174818   -0.016696
      7          6           0       -3.566025    0.805772   -0.002743
      8          6           0       -3.926715   -0.558331    0.019244
      9          6           0       -2.961754   -1.515371    0.026681
     10          6           0        0.890417    1.362016   -0.041381
     11          1           0        1.553956   -1.312920   -0.004559
     12          1           0       -1.951248    2.210511   -0.033970
     13          1           0       -4.334475    1.562665   -0.008629
     14          1           0       -4.962832   -0.853262    0.030106
     15          1           0       -3.154661   -2.574461    0.043102
     16          1           0        0.279442    2.256619   -0.030278
     17          1           0        1.539683    1.372132    0.829733
     18          1           0        1.499053    1.365521   -0.941584
 ---------------------------------------------------------------------
                    Distance matrix (angstroms):
                    1          2          3          4          5
     1  N    0.000000
     2  C    1.336575   0.000000
     3  N    2.170083   1.375789   0.000000
     4  C    2.298224   2.322284   1.411481   0.000000
     5  C    1.391460   2.200144   2.140159   1.368721   0.000000
     6  C    2.501293   1.397121   2.417483   3.639395   3.582911
     7  C    3.668419   2.368859   2.752216   4.155137   4.498188
     8  C    4.045895   2.736666   2.360025   3.700115   4.457269
     9  C    3.459631   2.370445   1.360956   2.482598   3.476545
    10  C    1.445037   2.486313   3.582048   3.684696   2.525560
    11  H    2.124186   3.200270   3.203732   2.209864   1.075854
    12  H    2.845943   2.154445   3.390952   4.476582   4.141121
    13  H    4.595055   3.354665   3.830671   5.233501   5.528949
    14  H    5.119622   3.813948   3.331250   4.583672   5.463486
    15  H    4.230516   3.313188   2.063619   2.675329   3.923254
    16  H    2.082449   2.615893   3.927794   4.368918   3.395320
    17  H    2.083352   3.186759   4.154733   4.070819   2.837939
    18  H    2.084594   3.175019   4.149186   4.077255   2.851890
                    6          7          8          9         10
     6  C    0.000000
     7  C    1.368646   0.000000
     8  C    2.413024   1.411154   0.000000
     9  C    2.783564   2.398690   1.359093   0.000000
    10  C    3.144240   4.491190   5.186152   4.808660   0.000000
    11  H    4.543674   5.541035   5.532425   4.520353   2.756252
    12  H    1.077547   2.140508   3.401733   3.860958   2.965646
    13  H    2.122087   1.078627   2.160015   3.370447   5.228847
    14  H    3.388925   2.168995   1.077331   2.107775   6.258842
    15  H    3.857775   3.405480   2.159032   1.076640   5.644967
    16  H    2.749397   4.110150   5.061438   4.973580   1.083388
    17  H    3.886262   5.204040   5.853639   5.407911   1.086502
    18  H    3.864363   5.181676   5.836383   5.397766   1.086654
                   11         12         13         14         15
    11  H    0.000000
    12  H    4.970099   0.000000
    13  H    6.553062   2.469842   0.000000
    14  H    6.533071   4.296563   2.496604   0.000000
    15  H    4.874918   4.934582   4.302377   2.496433   0.000000
    16  H    3.790337   2.231169   4.665862   6.095609   5.927713
    17  H    2.811717   3.692622   5.936740   6.919139   6.183142
    18  H    2.838147   3.666381   5.910950   6.900952   6.176578
                   16         17         18
    16  H    0.000000
    17  H    1.763560   0.000000
    18  H    1.764082   1.771796   0.000000
 Stoichiometry    C8H8N2
 Framework group  C1[X(C8H8N2)]
 Deg. of freedom    48
 Full point group                 C1      NOp   1
 RotChk:  IX=0 Diff= 1.04D-04
 Largest Abelian subgroup         C1      NOp   1
 Largest concise Abelian subgroup C1      NOp   1
                         Standard orientation:                         
 ---------------------------------------------------------------------
 Center     Atomic      Atomic             Coordinates (Angstroms)
 Number     Number       Type             X           Y           Z
 ---------------------------------------------------------------------
      1          7           0        1.509260   -0.173900   -0.001219
      2          6           0        0.181733   -0.329154   -0.000300
      3          7           0       -0.354398    0.937873    0.000255
      4          6           0        0.629962    1.949463    0.000191
      5          6           0        1.770522    1.192812   -0.000457
      6          6           0       -0.634032   -1.463382   -0.000326
      7          6           0       -1.989760   -1.275785   -0.000235
      8          6           0       -2.531635    0.027184    0.000161
      9          6           0       -1.704937    1.105935    0.000455
     10          6           0        2.501139   -1.224758    0.001066
     11          1           0        2.796815    1.515588   -0.000838
     12          1           0       -0.199775   -2.449551   -0.000197
     13          1           0       -2.648813   -2.129650   -0.000428
     14          1           0       -3.598156    0.179414    0.000411
     15          1           0       -2.039313    2.129335    0.000842
     16          1           0        2.016575   -2.193529   -0.019165
     17          1           0        3.138416   -1.135085   -0.874334
     18          1           0        3.112269   -1.158220    0.897118
 ---------------------------------------------------------------------
 Rotational constants (GHZ):      2.7945721      1.3535142      0.9171001
 Leave Link  202 at Wed Nov 17 23:29:11 2021, MaxMem=  6710886400 cpu:         0.0
 (Enter /usr/local/gqt/g09/l301.exe)
 Standard basis: 6-311+G(d,p) (5D, 7F)
 Ernie: Thresh=  0.10000D-02 Tol=  0.10000D-05 Strict=F.
 There are   278 symmetry adapted cartesian basis functions of A   symmetry.
 There are   268 symmetry adapted basis functions of A   symmetry.
   268 basis functions,   424 primitive gaussians,   278 cartesian basis functions
    35 alpha electrons       35 beta electrons
       nuclear repulsion energy       497.3204966587 Hartrees.
 IExCor= 5547 DFT=T Ex+Corr=N12SX ExCW=0 ScaHFX=  0.250000
 ScaDFX=  1.000000  1.000000  1.000000  1.000000 ScalE2=  1.000000  1.000000
 IRadAn=      0 IRanWt=     -1 IRanGd=            0 ICorTp=0 IEmpDi=  4
  HFx wShort=  0.110000 wLong=  0.000000 cFull=  0.000000 cShort=  1.000000 cLong=  0.000000
  DFx wShort=  0.110000 wLong=  0.000000 cFull=  0.000000 cShort=  1.000000 cLong=  0.000000
 NAtoms=   18 NActive=   18 NUniq=   18 SFac= 1.00D+00 NAtFMM=   60 NAOKFM=F Big=F
 Integral buffers will be    131072 words long.
 Raffenetti 2 integral format.
 Two-electron integral symmetry is turned on.
 ------------------------------------------------------------------------------
 Polarizable Continuum Model (PCM)
 =================================
 Model                : PCM (using non-symmetric T matrix).
 Atomic radii         : UFF (Universal Force Field).
 Polarization charges : Total charges.
 Charge compensation  : None.
 Solution method      : On-the-fly selection.
 Cavity type          : Scaled VdW (van der Waals Surface) (Alpha=1.100).
 Cavity algorithm     : GePol (No added spheres)
                        Default sphere list used, NSphG=   18.
                        Lebedev-Laikov grids with approx.  5.0 points / Ang**2.
                        Smoothing algorithm: Karplus/York (Gamma=1.0000).
                        Polarization charges: spherical gaussians, with
                                              point-specific exponents (IZeta= 3).
                        Self-potential: point-specific (ISelfS= 7).
                        Self-field    : sphere-specific E.n sum rule (ISelfD= 2).
 1st derivatives      : Analytical E(r).r(x)/FMM algorithm (CHGder, D1EAlg=3).
                        Cavity 1st derivative terms included.
 Solvent              : Water, Eps=  78.355300 Eps(inf)=   1.777849
 ------------------------------------------------------------------------------
 Spheres list:
 ISph  on   Nord     Re0    Alpha      Xe            Ye            Ze
    1   N      1    1.8300  1.100      1.509260     -0.173900     -0.001219
    2   C      2    1.9255  1.100      0.181733     -0.329154     -0.000300
    3   N      3    1.8300  1.100     -0.354398      0.937873      0.000255
    4   C      4    1.9255  1.100      0.629962      1.949463      0.000191
    5   C      5    1.9255  1.100      1.770522      1.192812     -0.000457
    6   C      6    1.9255  1.100     -0.634032     -1.463382     -0.000326
    7   C      7    1.9255  1.100     -1.989760     -1.275785     -0.000235
    8   C      8    1.9255  1.100     -2.531635      0.027184      0.000161
    9   C      9    1.9255  1.100     -1.704937      1.105935      0.000455
   10   C     10    1.9255  1.100      2.501139     -1.224758      0.001066
   11   H     11    1.4430  1.100      2.796815      1.515588     -0.000838
   12   H     12    1.4430  1.100     -0.199775     -2.449551     -0.000197
   13   H     13    1.4430  1.100     -2.648813     -2.129650     -0.000428
   14   H     14    1.4430  1.100     -3.598156      0.179414      0.000411
   15   H     15    1.4430  1.100     -2.039313      2.129335      0.000842
   16   H     16    1.4430  1.100      2.016575     -2.193529     -0.019165
   17   H     17    1.4430  1.100      3.138416     -1.135085     -0.874334
   18   H     18    1.4430  1.100      3.112269     -1.158220      0.897118
 ------------------------------------------------------------------------------
 GePol: Number of generator spheres                  =      18
 GePol: Total number of spheres                      =      18
 GePol: Number of exposed spheres                    =      18 (100.00%)
 GePol: Number of points                             =    1486
 GePol: Average weight of points                     =       0.13
 GePol: Minimum weight of points                     =   0.16D-08
 GePol: Maximum weight of points                     =    0.20577
 GePol: Number of points with low weight             =      97
 GePol: Fraction of low-weight points (<1% of avg)   =       6.53%
 GePol: Cavity surface area                          =    195.033 Ang**2
 GePol: Cavity volume                                =    196.701 Ang**3
 Leave Link  301 at Wed Nov 17 23:29:11 2021, MaxMem=  6710886400 cpu:         0.6
 (Enter /usr/local/gqt/g09/l302.exe)
 NPDir=0 NMtPBC=     1 NCelOv=     1 NCel=       1 NClECP=     1 NCelD=      1
         NCelK=      1 NCelE2=     1 NClLst=     1 CellRange=     0.0.
 One-electron integrals computed using PRISM.
 NBasis=   268 RedAO= T EigKep=  2.30D-06  NBF=   268
 NBsUse=   268 1.00D-06 EigRej= -1.00D+00 NBFU=   268
 Precomputing XC quadrature grid using
 IXCGrd= 4 IRadAn=           0 IRanWt=          -1 IRanGd=           0 AccXCQ= 0.00D+00.
 Generated NRdTot=       0 NPtTot=           0 NUsed=           0 NTot=          32
 NSgBfM=   278   278   278   278   278 MxSgAt=    18 MxSgA2=    18.
 Leave Link  302 at Wed Nov 17 23:29:12 2021, MaxMem=  6710886400 cpu:         3.5
 (Enter /usr/local/gqt/g09/l303.exe)
 DipDrv:  MaxL=1.
 Leave Link  303 at Wed Nov 17 23:29:12 2021, MaxMem=  6710886400 cpu:         0.5
 (Enter /usr/local/gqt/g09/l401.exe)
 Initial guess from the checkpoint file:  "NHC30.chk"
 B after Tr=     0.000000    0.000000    0.000000
         Rot=    1.000000   -0.000014    0.000006   -0.000004 Ang=   0.00 deg.
 Guess basis will be translated and rotated to current coordinates.
 JPrj=2 DoOrth=T DoCkMO=T.
 Leave Link  401 at Wed Nov 17 23:29:12 2021, MaxMem=  6710886400 cpu:         2.5
 (Enter /usr/local/gqt/g09/l502.exe)
 Closed shell SCF:
 Using DIIS extrapolation, IDIIS=  1040.
 Integral symmetry usage will be decided dynamically.
 Keep R1 ints in memory in canonical form, NReq=1310465756.
 IVT=      256914 IEndB=      256914 NGot=  6710886400 MDV=  5411279325
 LenX=  5411279325 LenY=  5411201600
 Requested convergence on RMS density matrix=1.00D-08 within 128 cycles.
 Requested convergence on MAX density matrix=1.00D-06.
 Requested convergence on             energy=1.00D-06.
 No special actions if energy rises.
 FoFCou: FMM=F IPFlag=           0 FMFlag=           0 FMFlg1=           0
         NFxFlg=           0 DoJE=F BraDBF=F KetDBF=F FulRan=T
         wScrn=  0.000000 ICntrl=     600 IOpCl=  0 I1Cent=           0 NGrid=           0
         NMat0=    1 NMatS0=  36046 NMatT0=    0 NMatD0=    1 NMtDS0=    0 NMtDT0=    0
 Symmetry not used in FoFCou.

 Cycle   1  Pass 1  IDiag  1:
 Inv3:  Mode=1 IEnd=     6624588.
 Iteration    1 A*A^-1 deviation from unit magnitude is 4.33D-15 for   1478.
 Iteration    1 A*A^-1 deviation from orthogonality  is 4.89D-15 for    941    483.
 Iteration    1 A^-1*A deviation from unit magnitude is 3.89D-15 for   1478.
 Iteration    1 A^-1*A deviation from orthogonality  is 5.85D-13 for    859    816.
 E= -419.016188176778    
 DIIS: error= 3.83D-05 at cycle   1 NSaved=   1.
 NSaved= 1 IEnMin= 1 EnMin= -419.016188176778     IErMin= 1 ErrMin= 3.83D-05
 ErrMax= 3.83D-05  0.00D+00 EMaxC= 1.00D-01 BMatC= 3.49D-07 BMatP= 3.49D-07
 IDIUse=1 WtCom= 1.00D+00 WtEn= 0.00D+00
 Coeff-Com:  0.100D+01
 Coeff:      0.100D+01
 Gap=     0.375 Goal=   None    Shift=    0.000
 RMSDP=2.80D-05 MaxDP=1.33D-03              OVMax= 1.95D-04

 Cycle   2  Pass 1  IDiag  1:
 E= -419.016188685696     Delta-E=       -0.000000508918 Rises=F Damp=F
 DIIS: error= 3.59D-06 at cycle   2 NSaved=   2.
 NSaved= 2 IEnMin= 2 EnMin= -419.016188685696     IErMin= 2 ErrMin= 3.59D-06
 ErrMax= 3.59D-06  0.00D+00 EMaxC= 1.00D-01 BMatC= 2.20D-09 BMatP= 3.49D-07
 IDIUse=1 WtCom= 1.00D+00 WtEn= 0.00D+00
 Coeff-Com: -0.480D-01 0.105D+01
 Coeff:     -0.480D-01 0.105D+01
 Gap=     0.149 Goal=   None    Shift=    0.000
 RMSDP=7.43D-07 MaxDP=3.96D-05 DE=-5.09D-07 OVMax= 2.31D-05

[...]
 ,-0.1395602,-0.1053547,-0.0402386,-0.0059205,-0.0319758,-0.5978471,0.1
 680837,-0.103325,0.0204066,0.7532483,0.4413593,-0.0217765,-0.0416677,-
 0.0507756,-0.2100792,-0.2328949,-0.2917059,0.019599,0.0132442,0.039778
 9,-0.0161013,-0.0024565,-0.0263672,-0.1864165,0.0385091,0.1839187,-0.0
 070339,0.3306978,0.2630774,-0.0185347,-0.0179197,-0.0235284,-0.1474194
 ,0.0006906,0.1825555,-0.0060033,-0.1159035,-0.3347366,0.0050339,0.0160
 215,0.0152129,-0.2115274,0.2326036,-0.2450101,0.026858,0.0907246,0.258
 2521,-0.0183569,0.0022035,-0.0297806,-0.0356366,0.493752,0.3274167,-0.
 015838,0.4344171,0.5289881,-0.0038914,-0.0238416,-0.0074523,0.2706279,
 -0.060582,0.0024523,-0.0086701,-0.0085315,0.092357,0.0067356,-0.007866
 5,0.0070888,0.1886704,0.0957088,-0.0545539,0.0006553,-0.0185809,-0.018
 2675,0.0147364,-0.0019562,0.0135282,0.1925423,0.0300094,0.0893198,-0.0
 114685,0.0909484,0.0248398,0.014228,-0.0116569,0.0142303,0.1785372,-0.
 0418621,-0.0496001,-0.004291,-0.0613086,0.0967576,0.0047632,-0.0034994
 ,0.0051217,0.1906523,0.1077873,0.0077084,-0.0029003,-0.0489634,0.02622
 73,0.0092805,0.0012713,0.0111884,0.1765448,0.0438643,0.0121219,0.07987
 36,-0.1350013,-0.055957,-0.0539523,0.012493,-0.1150526,-0.0261123,-0.0
 676411,-0.0146539,-0.0055508,0.0850623,0.0500727,0.0085511,-0.0126329,
 0.005212,0.1296874,0.0492661,-0.0064394,-0.0746543,-0.1381731,-0.03202
 11,0.045286,0.0126967,0.1154849,-0.0549442\Polar=208.4656116,-11.83515
 55,167.4715602,4.9783014,-6.2279515,87.2840366\PG=C01 [X(C8H8N2)]\NIma
 g=0\\0.76458094,0.09713808,0.70366897,0.01439015,-0.03799141,0.1355571
 6,-0.36155368,-0.00886590,-0.00920016,0.82830456,-0.01915113,-0.123397
 52,0.00314134,-0.10149643,0.69401480,-0.00844483,0.00349016,-0.0714813
 5,0.02985656,-0.04185982,0.16651123,-0.05693969,-0.02406463,-0.0005539
 8,-0.14065547,-0.01739589,-0.00076341,0.78680763,-0.05394315,-0.042380
 96,0.00202474,-0.05307104,-0.22855857,0.00888369,0.09368854,0.59677733
 ,0.00160929,0.00302200,0.01054075,0.00181854,0.01009233,-0.08153847,0.
 01458884,-0.02875925,0.15775767,0.00836814,-0.05136155,0.00331209,-0.0
 0525231,0.04881086,-0.00426317,-0.12831042,0.06470517,-0.00693772,0.43
 514355,-0.00252079,-0.06714438,0.00625048,0.00306158,-0.05099890,0.004
 97621,0.02548525,-0.14072565,0.00659489,0.09834177,0.44986512,-0.00022
 632,0.00460212,0.02014787,-0.00095504,0.00652302,0.01588654,-0.0041043
 4,0.00791918,-0.06214570,0.00488879,-0.02339723,0.08213484,-0.13863481
 ,0.05788353,-0.00721405,-0.05528826,0.03458718,-0.00482401,-0.10061791
 ,0.00268869,-0.00369644,-0.25441384,-0.13085156,0.00278936,0.89061409,
 0.03313161,-0.21708560,0.01325682,0.07743393,-0.02573338,0.00545221,-0
 .02918274,0.01369726,-0.00177019,-0.15795021,-0.20852857,0.00560707,0.
 01555601,0.51784793,-0.00542144,0.01409514,-0.05038844,-0.00792080,0.0
 0400014,0.01285541,-0.00138768,-0.00069323,0.00287039,0.00474657,0.006
 52385,-0.05740336,0.02510746,-0.02860840,0.11784002,-0.05242195,0.0268
 2107,-0.00380120,-0.19181216,0.08005856,-0.01033550,0.04606937,0.03209
 640,-0.00084923,0.00052537,-0.00017128,-0.00006675,0.00189187,-0.01047
 777,0.00073511,0.71680663,0.01505415,0.01400196,-0.00030057,0.11005786
 ,-0.24602249,0.01735775,0.01445217,-0.04508658,0.00393945,-0.00643056,
 -0.00376182,0.00025821,-0.00581840,0.00600833,-0.00044491,0.05607658,0
 .75046112,-0.00295503,0.00009823,0.00271760,-0.01250280,0.01634138,-0.
 05898062,0.00042446,0.00453628,0.00232470,0.00038738,0.00047134,0.0028
 0377,0.00039783,-0.00060250,0.00263003,0.01594767,-0.04327254,0.129108
 23,0.02125997,0.00367942,0.00027147,-0.06478814,0.04266696,-0.00542302
 ,-0.02259962,-0.02639943,0.00137165,-0.00257099,-0.00258472,0.00014550
 ,-0.00565604,0.00598684,-0.00063955,-0.37873501,-0.09813835,-0.0036970
 3,0.75844931,0.01076298,0.00078509,0.00068639,0.01120204,0.04891126,-0
 .00284118,-0.04208049,-0.01970780,-0.00048056,0.01197341,-0.00379967,0
 .00058092,-0.00585100,-0.00721371,0.00035738,-0.04318183,-0.14591236,0
 .00477111,-0.03882002,0.67627939,-0.00023596,0.00045431,0.00524296,-0.
 00314975,-0.00177694,0.00439018,0.00250525,0.00004550,-0.00661149,-0.0
 0090992,0.00008640,-0.00138921,0.00021756,0.00075675,0.00040849,-0.007
 67202,0.00291167,-0.06017405,0.02380388,-0.04025241,0.14134149,-0.0044
 5784,0.00445843,-0.00042981,0.00099936,0.01542391,-0.00093149,-0.06884
 642,0.02022545,-0.00404607,0.00971684,-0.00747891,0.00072217,-0.005105
 79,-0.00741348,0.00032421,-0.00160610,-0.03710814,0.00237677,-0.136351
 00,-0.07294899,0.00279337,0.79099782,-0.01531067,-0.00577195,-0.000189
 10,0.02226812,-0.04771066,0.00388117,0.04502858,0.04228857,-0.00099036
 ,-0.01209141,0.00310822,-0.00031989,0.00877367,0.00470858,0.00004038,-
 0.07256404,-0.00000254,-0.00191708,-0.01483595,-0.28773056,0.01574096,
 -0.01595174,0.67170284,0.00099620,0.00047134,-0.00128003,-0.00142296,0
 .00365072,-0.00474378,-0.00584113,-0.00182411,0.00747137,0.00106097,-0
 .00016179,0.00438431,-0.00084871,-0.00050743,0.00117675,0.00494281,-0.
 00071558,0.00765320,-0.00140584,0.01377770,-0.06409204,0.02356675,-0.0
 3981124,0.13219438,-0.00347029,-0.00719818,0.00034695,0.00076699,-0.07
 153490,0.00520273,-0.28973529,-0.04773584,-0.00434706,-0.05950653,0.00
 812216,-0.00248268,0.00951588,0.01943200,-0.00127161,-0.04720104,0.010
 55631,-0.00234692,0.04706733,0.05131817,-0.00238641,-0.26360399,0.1168
 6381,-0.01522908,0.68604458,0.00336663,-0.00618991,0.00068902,-0.04343
 541,-0.00211545,-0.00133120,-0.06636777,-0.16376992,0.00532247,0.01624
 678,0.01774444,-0.00098705,0.00647700,-0.00237629,0.00079292,0.0154293
 6,-0.00403766,0.00078596,0.00886996,-0.05109645,0.00456359,0.16499177,
 -0.27846585,0.02115239,-0.04565241,0.83137416,-0.00041899,0.00033740,0
 .00175664,0.00317141,-0.00228193,0.00006435,-0.00300276,0.00595017,-0.
 05963566,-0.00307153,-0.00126454,-0.00353074,-0.00033261,0.00123147,0.
 00546227,-0.00270158,0.00061977,-0.00052305,0.00068410,0.00599637,0.00
 745257,-0.01871311,0.01952653,-0.06514107,0.02169743,-0.05137688,0.146
 58565,-0.14794714,-0.05876775,0.00126263,-0.02255409,-0.03015757,0.001
 50976,-0.00691216,0.00372627,-0.00058389,0.00362822,0.00608700,-0.0005
 1556,0.01208510,-0.00600815,0.00103918,0.00410870,-0.00048003,0.000213
 95,-0.00139937,-0.00301727,0.00015884,-0.00033778,0.00249982,-0.000171
 93,0.00270682,-0.00190188,0.00019136,0.58579785,-0.06301163,-0.1992586
 1,0.00789979,-0.01234240,0.00692668,-0.00111637,0.00395556,0.00168120,
 0.00018401,0.00323649,-0.00253520,0.00072014,-0.01781079,-0.02496100,0
 .00078306,0.00607640,0.00021504,0.00010594,-0.00200928,-0.00266394,0.0
 0014986,-0.00024779,0.00270308,-0.00024786,0.00254088,0.00023806,0.000
 14810,-0.06035425,0.53501844,0.00156312,0.00805007,-0.06069476,0.00023
 639,-0.00171424,-0.00258528,-0.00059541,0.00016498,0.00228391,-0.00031
 531,0.00082069,0.00587570,0.00189671,0.00118802,-0.00584743,-0.0002600
 7,-0.00011393,-0.00115517,0.00008702,0.00012147,0.00037021,0.00002801,
 -0.00015934,-0.00062133,-0.00012879,0.00000065,0.00111273,0.00438557,0
 .00154417,0.58470792,-0.00552885,-0.00279525,0.00010117,0.00097618,-0.
 00006353,-0.00004150,-0.00392357,-0.00109878,-0.00036252,-0.00815698,0
 .00486646,-0.00047315,-0.35249100,0.05284203,-0.01484216,-0.00016090,-
 0.00004612,-0.00006583,0.00008181,0.00014421,-0.00000399,-0.00041541,-
 0.00022715,0.00001461,0.00036156,0.00090800,-0.00008642,0.00061102,-0.
 00071994,0.00011663,0.36808755,0.03445343,-0.00880562,0.00161603,-0.00
 206936,-0.00637954,0.00056249,-0.00756471,-0.00018102,0.00041422,-0.01
 474124,0.00799142,-0.00140452,0.04199644,-0.06195767,0.00397846,0.0019
 5005,0.00085940,0.00013923,-0.00020296,-0.00096943,0.00006013,-0.00066
 277,0.00034444,-0.00007933,0.00050980,0.00145255,-0.00001250,0.0019642
 6,0.00193591,-0.00017044,-0.05459051,0.06566980,-0.00259120,0.00035778
 ,-0.00268080,0.00010208,0.00063043,0.00232615,0.00010729,0.00063227,0.
 00904093,0.00094323,-0.00074088,-0.00445123,-0.01405748,0.00434383,-0.
 02737454,-0.00020994,0.00007150,0.00186071,0.00001856,0.00007237,-0.00
 004069,0.00004921,-0.00006519,-0.00044512,-0.00006026,0.00000137,0.001
 04493,-0.00007716,-0.00026079,-0.00130722,0.01567384,-0.00505450,0.022
 18933,0.00044849,-0.00148027,0.00019098,0.01135286,0.02135898,-0.00121
 926,-0.00318009,0.00347735,-0.00057606,0.00034689,0.00113202,-0.000064
 20,0.00018873,0.00030855,0.00000064,-0.08206867,-0.07977555,0.00415794
 ,-0.00271102,-0.02995910,0.00194323,-0.00505079,-0.00053045,-0.0004212
 0,-0.00159434,0.00018877,-0.00003050,0.00060747,0.00025885,0.00000699,
 -0.00000439,-0.00006111,-0.00000187,0.08136442,-0.00108647,0.00095270,
 -0.00025543,-0.00873020,-0.01586522,0.00098004,0.00271639,0.00027406,0
 .00053208,0.00012986,-0.00095354,0.00006308,-0.00004596,-0.00067174,0.
 00001152,-0.08010372,-0.33193316,0.01877683,0.00033831,-0.00179156,0.0
 0042378,-0.00094896,0.00202583,0.00043107,0.00110689,0.00042182,-0.000
 06695,-0.00014752,-0.00008095,-0.00001594,0.00005504,0.00004522,0.0000
 1198,0.08646231,0.34681203,0.00016378,-0.00026862,-0.00203197,0.000954
 21,0.00199717,0.00165128,-0.00052044,0.00056197,0.00635405,0.00000814,
 0.00009536,-0.00017376,0.00002616,0.00002355,-0.00048979,0.00418308,0.
 01878670,-0.03579778,-0.00024693,-0.00060338,0.00390736,-0.00038934,0.
 00044960,0.00845146,-0.00009802,-0.00010145,-0.00106561,0.00003807,-0.
 00000152,-0.00023298,-0.00001044,0.00000793,0.00018172,-0.00432625,-0.
 02036911,0.02577874,-0.00050302,0.00179922,-0.00017118,-0.00401368,-0.
 00288594,-0.00022146,-0.00044391,-0.00050037,0.00006408,0.00030520,0.0
 0011207,0.00000148,-0.00053029,-0.00060758,0.00004488,-0.01655267,0.02
 211819,-0.00231863,-0.20693677,0.14578324,-0.01621912,0.00987652,-0.00
 845722,0.00082234,0.00040793,-0.00262459,0.00001839,0.00009874,0.00017
 852,-0.00002261,-0.00002485,0.00012706,0.00000584,0.00131256,-0.000003
 86,0.00022897,0.21607591,0.00032122,0.00064162,0.00001575,-0.00327396,
 0.00011520,0.00051025,-0.00056443,0.00002719,-0.00011377,0.00002306,0.
 00013655,-0.00000721,-0.00012337,0.00015512,-0.00005578,-0.00873136,0.
 00968601,-0.00065317,0.14698844,-0.20378171,0.01688509,0.02212522,-0.0
 1511267,0.00210318,-0.00300258,-0.00465430,0.00063126,-0.00002802,-0.0
 0004165,0.00002974,0.00000085,0.00004535,-0.00003708,0.00044220,0.0006
 3341,-0.00042465,-0.15512577,0.21141587,-0.00006427,0.00006626,0.00070
 487,-0.00019381,0.00052377,0.00866293,0.00006928,-0.00011258,-0.001280
 19,0.00000755,-0.00000409,0.00002894,0.00000991,-0.00007215,-0.0005537
 5,-0.00008876,0.00038979,0.00470582,-0.01630620,0.01684362,-0.04073405
 ,-0.00138813,0.00106932,0.00350485,0.00004540,0.00064423,0.00544093,-0
 .00000722,0.00003608,0.00037465,0.00001500,-0.00003275,-0.00046407,0.0
 0019698,-0.00043937,-0.00541066,0.01763750,-0.01864004,0.02807087,0.00
 010610,-0.00022886,0.00002099,0.00048113,0.00053903,-0.00000158,-0.000
 40201,0.00358373,-0.00059341,-0.00030892,-0.00083129,0.00001465,-0.000
 47267,0.00052250,-0.00003578,0.00134596,-0.00085595,-0.00005752,-0.001
 63830,0.00120422,-0.00019735,-0.33564832,-0.07635190,-0.00467611,-0.01
 601569,-0.00918946,0.00010477,0.00005808,0.00009767,0.00000032,-0.0000
 6346,-0.00008695,0.00001077,-0.00015619,0.00012017,-0.00002480,0.00056
 286,-0.00014102,0.00012656,0.35144897,-0.00008987,0.00003093,-0.000009
 77,0.00054296,-0.00130382,0.00006956,0.00456058,-0.00372671,0.00110265
 ,-0.00009707,0.00090900,0.00000946,0.00052299,0.00008596,-0.00002760,-
 0.00063798,-0.00539040,0.00072000,-0.02971459,-0.00304793,-0.00066115,
 -0.07826621,-0.07933804,0.00060254,0.02270445,0.01011594,0.00008164,0.
 00006086,0.00003519,-0.00001469,0.00006227,0.00012384,-0.00002071,-0.0
 0135929,-0.00015034,-0.00001240,0.00053587,0.00125887,-0.00028057,0.08
 162443,0.07980827,0.00001248,-0.00001420,-0.00005820,-0.00000313,0.000
 06914,-0.00060346,-0.00066113,0.00106986,0.00930067,-0.00004050,-0.000
 01580,0.00107944,-0.00003527,-0.00002736,-0.00053851,-0.00007338,0.000
 71253,0.00481445,0.00203524,0.00038383,0.00174287,-0.00453406,0.000668
 28,-0.03456956,-0.00220454,-0.00099788,0.00061027,0.00000418,-0.000013
 06,-0.00019202,0.00000011,-0.00002587,-0.00019037,0.00008244,0.0000380
 7,0.00031459,0.00007754,-0.00030353,-0.00284881,0.00511460,-0.00114009
 ,0.02609736,-0.00116949,-0.00184885,0.00008214,-0.00410870,0.00232151,
 -0.00048129,-0.00981008,-0.03801208,0.00231502,0.00291057,-0.00061065,
 0.00022668,0.00025547,-0.00011625,0.00003659,-0.00062283,0.00005959,0.
 00001310,-0.00320983,0.00281472,-0.00060128,0.00994928,0.02099408,-0.0
 0138670,-0.06647117,-0.04727234,0.00246315,-0.00026810,0.00038596,-0.0
 0004983,-0.00001594,0.00007242,-0.00000942,0.00016836,-0.00004739,0.00
 004973,0.00038470,0.00108398,-0.00006019,0.00073134,-0.00047231,0.0002
 2998,0.07138553,0.00017878,-0.00016587,0.00004398,-0.00003597,0.001695
 66,0.00024856,-0.00239681,-0.00635530,0.00059613,0.00191544,0.00044960
 ,-0.00014777,-0.00008752,0.00022038,-0.00006060,-0.00004714,0.00037068
 ,-0.00011048,0.00316879,-0.00006473,0.00072902,-0.00630039,-0.01112541
 ,0.00103123,-0.05678834,-0.34879229,0.02053078,0.00001653,0.00024856,0
 .00001036,-0.00004475,-0.00005780,0.00001045,-0.00002480,-0.00009477,-
 0.00008073,-0.00039189,-0.00056452,0.00001653,0.00004110,0.00059222,-0
 .00040719,0.06083001,0.36369821,-0.00006467,-0.00002584,0.00035319,-0.
 00031038,0.00032841,0.00511971,-0.00025993,-0.00060876,0.00303754,0.00
 004456,-0.00023204,-0.00246648,0.00003418,-0.00006166,-0.00057237,0.00
 002140,-0.00010686,-0.00112838,-0.00062694,0.00071832,0.00847386,0.000
 58707,0.00195339,0.00595035,0.00315156,0.02085316,-0.03965208,-0.00002
 321,0.00002280,0.00037786,-0.00000152,0.00001454,0.00010676,0.00004793
 ,-0.00008218,-0.00119299,0.00004651,0.00006653,-0.00015512,0.00019224,
 -0.00042459,-0.00502032,-0.00283775,-0.02241168,0.02678369,0.00129661,
 -0.01992050,-0.01630376,0.00258373,-0.00021198,-0.00109266,0.00023422,
 -0.00169278,0.00038901,-0.00106881,-0.00084621,0.00056857,-0.00127748,
 0.00160210,-0.00146586,0.00025208,0.00019659,0.00027951,-0.00020785,0.
 00021336,0.00034472,-0.00005009,0.00004151,-0.00015386,0.00031370,0.00
 012479,0.00024502,-0.06366838,0.03989268,0.05071341,0.00011742,-0.0001
 7470,0.00015134,-0.00051550,0.00004405,-0.00056315,0.00000791,0.000004
 67,0.00003264,0.00000158,0.00000943,-0.00008263,-0.00000997,-0.0000006
 6,0.00002615,0.06441430,0.00009258,-0.02873099,-0.01876309,0.00432982,
 0.00059365,0.00012629,0.00080993,-0.00174995,0.00040525,-0.00146141,-0
 .00110635,0.00109353,-0.00298508,0.00218419,-0.00256179,-0.00134199,0.
 00036452,-0.00028088,0.00051275,0.00080342,-0.00006171,0.00004913,-0.0
 0080762,0.00000227,-0.00072614,0.00028887,0.00001820,0.03585037,-0.139
 46719,-0.12236265,0.00007128,0.00003108,-0.00010820,-0.00014790,0.0000
 7731,-0.00004230,-0.00001721,0.00002439,0.00002646,-0.00002217,-0.0000
 1053,0.00000391,-0.00002832,-0.00000710,0.00002927,-0.03295115,0.16104
 867,-0.00385257,0.00232818,0.00757570,0.00092836,-0.00041786,0.0011685
 1,0.00030113,-0.00043507,-0.00013231,-0.00045553,0.00013210,-0.0002862
 1,0.00024170,0.00165087,-0.00040532,-0.00036692,-0.00019874,-0.0003908
 2,0.00027818,0.00045083,-0.00018079,0.00010664,-0.00038362,0.00008301,
 -0.00041449,0.00008736,-0.00003435,0.04894011,-0.12700086,-0.21740863,
 0.00001537,0.00000316,0.00008499,-0.00039190,0.00016276,-0.00008648,0.
 00001277,0.00000390,-0.00001295,-0.00000035,0.00001464,0.00002959,-0.0
 0001428,0.00000019,-0.00000755,-0.05219182,0.13689682,0.22710361,-0.02
 335468,0.00215047,-0.00086144,0.00197871,-0.00279582,0.00026548,-0.001
 00756,0.00001903,-0.00005452,-0.00029241,-0.00039533,0.00003128,0.0013
 0511,0.00303482,-0.00020085,-0.00005726,-0.00006528,0.00000408,0.00010
 851,0.00024689,-0.00001524,-0.00001399,-0.00018283,0.00001249,0.000112
 88,-0.00025586,0.00002036,-0.30906493,0.07470950,-0.01395723,0.0004230
 1,-0.00072461,0.00006628,0.00007923,0.00000897,0.00000709,-0.00003807,
 0.00000051,-0.00000050,-0.00002522,-0.00000807,-0.00000022,-0.00009003
 ,-0.00002840,-0.00000105,-0.00401960,0.00156906,-0.00066678,0.33629115
 ,-0.03863303,0.00460726,-0.00175413,0.00027594,-0.00484069,0.00037960,
 -0.00185852,-0.00078928,0.00003395,0.00006121,0.00062884,-0.00007089,-
 0.00175734,0.00136903,-0.00010649,0.00002920,-0.00023010,0.00001437,0.
 00002902,0.00027108,-0.00001532,0.00002483,-0.00008379,0.00000720,0.00
 013620,-0.00040231,0.00003695,0.08894602,-0.07434753,0.00489087,0.0005
 7451,-0.00019515,0.00003846,-0.00019806,0.00024009,-0.00003478,-0.0000
 2287,-0.00000406,-0.00000220,-0.00000388,0.00001967,-0.00000173,-0.000
 13025,-0.00003591,-0.00000223,0.01728688,-0.00436214,0.00308794,-0.078
 46937,0.08187167,0.00206212,-0.00040539,-0.00196436,0.00003492,0.00026
 959,0.00020389,0.00008012,0.00010006,0.00056464,-0.00000114,-0.0000862
 3,-0.00037585,0.00014825,0.00005495,0.00072055,-0.00000400,0.00001109,
 -0.00004355,0.00000012,-0.00000890,0.00004724,-0.00000279,0.00000077,0
 .00000871,-0.00000864,0.00002391,0.00004829,-0.01497575,0.00441914,-0.
 04768574,-0.00002777,-0.00000573,0.00005931,0.00002357,-0.00002799,-0.
 00015299,0.00000124,-0.00000145,-0.00002363,0.00000017,-0.00000192,-0.
 00000449,0.00000650,0.00000116,-0.00000415,0.02470194,-0.00616599,0.00
 262899,0.01519181,-0.00522939,0.04567086,-0.00007880,-0.01739847,0.018
 55699,0.00258298,-0.00007381,0.00120864,0.00027299,-0.00175716,-0.0001
 0951,-0.00106356,-0.00091756,-0.00050044,-0.00136817,0.00190581,0.0011
 5111,0.00023862,0.00014693,-0.00025893,-0.00016301,0.00019546,-0.00037
 580,-0.00005231,0.00003376,0.00014134,0.00030067,0.00009666,-0.0002384
 8,-0.05755005,0.02516357,-0.04370492,0.00012679,-0.00019456,-0.0001211
 0,-0.00058802,0.00013207,0.00052013,0.00001092,0.00000037,-0.00003175,
 -0.00000523,0.00002156,0.00007830,-0.00000911,-0.00000396,-0.00002613,
 0.00159613,-0.00360357,0.00753039,-0.00233486,0.01370951,-0.02723067,0
 .05808404,-0.00075270,-0.02575712,0.02363915,0.00414842,0.00066898,0.0
 0023059,0.00077899,-0.00171387,-0.00012530,-0.00131060,-0.00127910,-0.
 00104217,-0.00315449,0.00225117,0.00197595,-0.00128052,0.00041005,0.00
 007598,0.00046481,0.00072959,-0.00003954,0.00002866,-0.00073246,0.0001
 1772,-0.00065230,0.00026457,-0.00010586,0.02171130,-0.10564608,0.10773
 020,0.00006138,0.00004721,0.00011692,-0.00009250,0.00005880,0.00001666
 ,-0.00001687,0.00001934,-0.00003232,-0.00002136,-0.00001212,0.00000109
 ,-0.00002383,-0.00001162,-0.00003056,-0.00361808,0.01082577,-0.0163826
 2,0.00118631,-0.00371668,0.00705233,-0.01745662,0.12359357,0.00347814,
 0.00133247,0.00598317,-0.00144362,0.00048336,0.00109279,-0.00038617,0.
 00054430,-0.00020280,0.00059555,-0.00004872,-0.00011886,0.00013943,-0.
 00191584,-0.00039039,0.00059928,0.00009467,-0.00042509,-0.00035020,-0.
 00057388,-0.00015490,-0.00011938,0.00050541,0.00001454,0.00053442,-0.0
 0012257,0.00000393,-0.04138893,0.11262737,-0.25737243,-0.00002142,-0.0
 0001057,0.00005923,0.00038054,-0.00017425,-0.00000420,-0.00000853,-0.0
 0000902,-0.00001063,0.00000184,-0.00000701,0.00003649,0.00001783,0.000
 00004,-0.00000351,-0.00559856,0.01174462,-0.01972900,0.00015895,-0.001
 27217,0.00030228,0.04341083,-0.12319821,0.27091939\\0.00000679,-0.0000
 0170,0.00000372,-0.00000568,-0.00000078,-0.00000399,0.00000240,0.00000
 114,0.00000173,0.00000696,-0.00000033,0.00000021,0.00000323,0.00001182
 ,-0.00000300,-0.00000054,-0.00000274,0.00000005,-0.00000332,-0.0000074
 3,0.00000052,0.00000151,-0.00000679,0.00000011,0.00000636,-0.00000539,
 0.00000158,-0.00000803,0.00001105,0.00000122,0.00000425,0.00000851,0.0
 0000015,-0.00000662,-0.00000181,-0.00000010,-0.00000497,-0.00000963,0.
 00000060,0.00000291,-0.00001151,0.00000063,0.00000793,-0.00000557,0.00
 000065,-0.00000462,0.00000597,-0.00000071,-0.00000392,0.00000924,-0.00
 000235,-0.00000464,0.00000597,-0.00000101\\\@


 A COMPUTER IS LIKE A HORSE, IT WILL SENSE WEAKNESS.
     -- GREG WETTSTEIN
 Job cpu time:       0 days  1 hours 21 minutes 44.8 seconds.
 File lengths (MBytes):  RWF=    164 Int=      0 D2E=      0 Chk=     11 Scr=      1
 Normal termination of Gaussian 09 at Wed Nov 17 23:46:40 2021.
